LAMMPS (29 Oct 2020)
OMP_NUM_THREADS environment is not set. Defaulting to 1 thread. (src/comm.cpp:94)
  using 1 OpenMP thread(s) per MPI task
Reading data file ...
  triclinic box = (0.0000000 0.0000000 0.0000000) to (5.6102000 4.8585757 18.871000) with tilt (-2.8051000 0.0000000 0.0000000)
  1 by 1 by 1 MPI processor grid
  reading atoms ...
  18 atoms
  read_data CPU = 0.002 seconds
Changing box ...
  triclinic box = (0.0000000 0.0000000 0.0000000) to (5.6102000 4.8585757 18.871000) with tilt (-2.8051000 0.0000000 0.0000000)
NEQUIP is using device cpu
NequIP Coeff: type 1 is element C
NequIP Coeff: type 2 is element O
NequIP Coeff: type 3 is element Pt
Loading model from /users/40247882/repository/GDPy/examples/expedition/online/nequip/aqueous/surf22-fixed/init/t0/m1/deployed_model.pth
Freezing TorchScript model...
10 atoms in group mobile
8 atoms in group frozen
Neighbor list info ...
  update every 1 steps, delay 10 steps, check yes
  max neighbors/atom: 2000, page size: 100000
  master list distance cutoff = 6
  ghost atom cutoff = 6
  binsize = 3, bins = 3 2 7
  1 neighbor lists, perpetual/occasional/extra = 1 0 0
  (1) pair nequip, perpetual
      attributes: full, newton off
      pair build: full/bin/atomonly
      stencil: full/bin/3d
      bin: standard
Setting up Verlet run ...
  Unit style    : metal
  Current step  : 0
  Time step     : 0.002
Per MPI rank memory allocation (min/avg/max) = 4.329 | 4.329 | 4.329 Mbytes
Step c_mobileTemp PotEng KinEng TotEng Press Volume Lx Ly Lz Xy Xz Yz 
       0          300   -108.11419   0.34900239   -107.76519    724.71169    514.37782       5.6102    4.8585757       18.871      -2.8051            0            0 
      50    309.11142   -108.08621   0.35960208   -107.72661     746.7222    514.37782       5.6102    4.8585757       18.871      -2.8051            0            0 
     100    428.04328   -108.00665   0.49796042   -107.50869    1034.0266    514.37782       5.6102    4.8585757       18.871      -2.8051            0            0 
Loop time of 41.7687 on 1 procs for 100 steps with 18 atoms

Performance: 0.414 ns/day, 58.012 hours/ns, 2.394 timesteps/s
91.2% CPU use with 1 MPI tasks x 1 OpenMP threads

MPI task timing breakdown:
Section |  min time  |  avg time  |  max time  |%varavg| %total
---------------------------------------------------------------
Pair    | 41.766     | 41.766     | 41.766     |   0.0 | 99.99
Neigh   | 0.00040315 | 0.00040315 | 0.00040315 |   0.0 |  0.00
Comm    | 0.0007043  | 0.0007043  | 0.0007043  |   0.0 |  0.00
Output  | 0.00022712 | 0.00022712 | 0.00022712 |   0.0 |  0.00
Modify  | 0.0013785  | 0.0013785  | 0.0013785  |   0.0 |  0.00
Other   |            | 0.0003265  |            |       |  0.00

Nlocal:        18.0000 ave          18 max          18 min
Histogram: 1 0 0 0 0 0 0 0 0 0
Nghost:        349.000 ave         349 max         349 min
Histogram: 1 0 0 0 0 0 0 0 0 0
Neighs:        0.00000 ave           0 max           0 min
Histogram: 1 0 0 0 0 0 0 0 0 0
FullNghs:      804.000 ave         804 max         804 min
Histogram: 1 0 0 0 0 0 0 0 0 0

Total # of neighbors = 804
Ave neighs/atom = 44.666667
Neighbor list builds = 10
Dangerous builds = 10
Total wall time: 0:00:43
