ITEM: TIMESTEP
0
ITEM: NUMBER OF ATOMS
18
ITEM: BOX BOUNDS xy xz yz pp pp pp
-2.8050999999999999e+00 5.6101999999999999e+00 -2.8050999999999999e+00
0.0000000000000000e+00 4.8585757200000002e+00 0.0000000000000000e+00
0.0000000000000000e+00 1.8870999999999999e+01 0.0000000000000000e+00
ITEM: ATOMS id type element x y z fx fy fz vx vy vz
1 1 C 2.75244 0.01789 8.86028 0.00336701 -0.00314877 1.74721 -5.89964 4.7871 5.97049
2 2 O 2.70822 0.01882 10.0185 0.0171054 0.000218523 -0.432593 5.793 0.220964 2.83164
3 3 Pt 0 0 0 0 0 0 0 0 0
4 3 Pt 1.40255 2.42928 0 0 0 0 0 0 0
5 3 Pt 4.20765 2.42928 0 0 0 0 0 0 0
6 3 Pt 2.80509 0 0 0 0 0 0 0 0
7 3 Pt 2.80512 1.6195 2.29038 0 0 0 0 0 0
8 3 Pt 3e-05 1.6195 2.29038 0 0 0 0 0 0
9 3 Pt 1.40257 4.04879 2.29038 0 0 0 0 0 0
10 3 Pt -1.40252 4.04879 2.29038 0 0 0 0 0 0
11 3 Pt 2.80773 3.24649 4.54705 0.00153301 0.00303921 0.0573129 0.449974 1.30879 -0.489326
12 3 Pt 4.18934 0.80526 4.57518 0.0210368 0.0120338 0.221772 0.737778 -1.44368 -0.547752
13 3 Pt 1.42203 0.80732 4.5688 -0.0225708 0.00802194 0.263212 0.361327 -1.62588 -1.48735
14 3 Pt 0.00157 3.26688 4.56932 -0.00348621 -0.020345 0.252764 1.23564 -1.53358 1.35155
15 3 Pt -1.39347 2.44429 6.80509 -0.0460995 0.0330126 -0.117689 -0.504805 -0.206489 1.49724
16 3 Pt 1.40531 2.44482 6.80276 0.0276704 0.0266606 -0.123909 -1.00224 0.718636 0.261926
17 3 Pt 0.00639 0.01771 6.80452 -0.004895 -0.050162 -0.116758 -0.706929 0.977029 -1.14322
18 3 Pt 2.81508 0.019 7.02196 0.00587462 -0.0124856 -1.79202 -0.682612 1.49231 -0.0428864
ITEM: TIMESTEP
50
ITEM: NUMBER OF ATOMS
18
ITEM: BOX BOUNDS xy xz yz pp pp pp
-2.8050999999999999e+00 5.6101999999999999e+00 -2.8050999999999999e+00
0.0000000000000000e+00 4.8585757200000002e+00 0.0000000000000000e+00
0.0000000000000000e+00 1.8870999999999999e+01 0.0000000000000000e+00
ITEM: ATOMS id type element x y z fx fy fz vx vy vz
1 1 C 2.54021 0.252126 8.9409 -0.575805 0.095366 -1.77682 -1.11385 0.130106 8.39767
2 2 O 3.29611 0.00305388 9.77308 0.768216 -0.270202 1.01703 7.80368 -1.25966 -3.74589
3 3 Pt 0 0 0 0 0 0 0 0 0
4 3 Pt 1.40255 2.42928 0 0 0 0 0 0 0
5 3 Pt 4.20765 2.42928 0 0 0 0 0 0 0
6 3 Pt 2.80509 0 0 0 0 0 0 0 0
7 3 Pt 2.80512 1.6195 2.29038 0 0 0 0 0 0
8 3 Pt 3e-05 1.6195 2.29038 0 0 0 0 0 0
9 3 Pt 1.40257 4.04879 2.29038 0 0 0 0 0 0
10 3 Pt -1.40252 4.04879 2.29038 0 0 0 0 0 0
11 3 Pt 2.88352 3.23937 4.53865 -0.0749471 -0.180653 0.10166 1.03925 -1.63741 0.424364
12 3 Pt 4.19243 0.759223 4.56922 0.0937186 0.0160735 0.0827297 -0.676108 0.502953 0.431335
13 3 Pt 1.52681 0.712462 4.51117 -0.136451 0.147628 0.280478 1.71436 -0.191749 0.467413
14 3 Pt 0.077844 3.09796 4.71419 -0.0984187 0.153955 -0.433532 0.223193 -1.69984 1.08189
15 3 Pt 4.1368 2.48012 6.90822 0.0256317 0.172445 -0.101067 -1.05301 1.06002 0.502329
16 3 Pt 1.34664 2.53232 6.80826 0.120884 0.095403 0.0689372 -0.123709 1.14714 -0.0629022
17 3 Pt 5.56401 0.0791902 6.70603 -0.0130687 0.00020266 0.0511561 -0.419899 0.326984 -0.820257
18 3 Pt 2.70927 0.14098 6.96006 -0.127658 -0.208981 0.312486 -1.33008 0.672276 -2.39536
ITEM: TIMESTEP
100
ITEM: NUMBER OF ATOMS
18
ITEM: BOX BOUNDS xy xz yz pp pp pp
-2.8050999999999999e+00 5.6101999999999999e+00 -2.8050999999999999e+00
0.0000000000000000e+00 4.8585757200000002e+00 0.0000000000000000e+00
0.0000000000000000e+00 1.8870999999999999e+01 0.0000000000000000e+00
ITEM: ATOMS id type element x y z fx fy fz vx vy vz
1 1 C 0.177969 4.76584 8.57794 0.547204 0.124028 0.851351 2.59208 0.297901 -16.2167
2 2 O 0.888702 4.84914 9.49616 -0.93142 -0.0111382 -1.14138 -3.08785 1.07935 -7.1187
3 3 Pt 0 0 0 0 0 0 0 0 0
4 3 Pt 1.40255 2.42928 0 0 0 0 0 0 0
5 3 Pt 4.20765 2.42928 0 0 0 0 0 0 0
6 3 Pt 2.80509 0 0 0 0 0 0 0 0
7 3 Pt 2.80512 1.6195 2.29038 0 0 0 0 0 0
8 3 Pt 3e-05 1.6195 2.29038 0 0 0 0 0 0
9 3 Pt 1.40257 4.04879 2.29038 0 0 0 0 0 0
10 3 Pt -1.40252 4.04879 2.29038 0 0 0 0 0 0
11 3 Pt 2.94286 3.14825 4.56617 -0.0347038 0.0998896 -0.14952 0.160061 0.142464 -0.204257
12 3 Pt 4.24275 0.710929 4.59916 0.145418 -0.202139 -0.476476 1.95807 -1.80124 -0.415516
13 3 Pt 1.58037 0.672934 4.55684 -0.202619 -0.0110936 -0.539679 -0.84914 -0.795839 -0.357157
14 3 Pt 0.11958 2.97037 4.68519 -0.0396594 0.275598 -0.533645 0.726776 -0.812036 -1.96962
15 3 Pt 4.07307 2.58162 6.97161 0.114179 -0.221942 -0.112224 -0.0628211 0.650856 0.885327
16 3 Pt 1.32381 2.66188 6.83786 0.0582329 -0.283323 0.225935 -0.472346 1.17242 0.895928
17 3 Pt 5.48798 0.1761 6.60761 0.03233 0.27646 0.316522 -1.1628 2.01376 -0.97831
18 3 Pt 2.59548 0.157512 6.7041 0.279881 0.0234609 0.446823 -0.403605 -0.391289 -1.85276
