ITEM: TIMESTEP
0
ITEM: NUMBER OF ATOMS
18
ITEM: BOX BOUNDS xy xz yz pp pp pp
-2.8050999999999999e+00 5.6102000000000007e+00 -2.8050999999999999e+00
0.0000000000000000e+00 4.8585757200000002e+00 0.0000000000000000e+00
0.0000000000000000e+00 1.8870999999999999e+01 0.0000000000000000e+00
ITEM: ATOMS id type element x y z fx fy fz vx vy vz
1 1 C 3.75971 0.0812604 7.53946 -0.102462 0.171037 -1.74676 15.4073 2.19029 6.10117
2 2 O 3.43836 0.283034 8.63563 -0.323104 0.143362 1.41114 -0.624124 6.52339 1.32411
3 3 Pt 0 0 0 0 0 0 0 0 0
4 3 Pt 1.40255 2.42928 0 0 0 0 0 0 0
5 3 Pt 4.20765 2.42928 0 0 0 0 0 0 0
6 3 Pt 2.80509 0 0 0 0 0 0 0 0
7 3 Pt 2.80512 1.6195 2.29038 0 0 0 0 0 0
8 3 Pt 3e-05 1.6195 2.29038 0 0 0 0 0 0
9 3 Pt 1.40257 4.04879 2.29038 0 0 0 0 0 0
10 3 Pt -1.40252 4.04879 2.29038 0 0 0 0 0 0
11 3 Pt 3.05775 2.96465 4.70478 -0.0267229 0.208671 -0.466741 0.518032 0.263772 0.487736
12 3 Pt 4.41235 0.504069 4.37405 0.0232088 -0.0449163 0.238772 1.4119 -0.874394 -0.39882
13 3 Pt 1.56119 0.632655 4.44916 0.182687 -0.183951 0.439312 -0.679547 -0.352421 1.22346
14 3 Pt 0.174468 2.95325 4.56957 0.0904353 0.0013949 -0.047449 0.459592 -0.260957 1.63168
15 3 Pt 4.00207 2.74601 6.90083 -0.059198 -0.150191 0.160405 -0.045238 1.36308 -0.75092
16 3 Pt 1.28641 2.68563 6.8773 0.018241 -0.116646 -0.0411164 -0.776993 -0.899488 -1.14007
17 3 Pt -0.138203 0.464693 6.66352 -0.388505 -0.266556 -0.0733906 0.690287 0.161257 -0.104786
18 3 Pt 2.32524 0.208172 6.12389 0.591313 0.280637 0.14874 -2.65022 0.596055 -3.39533
ITEM: TIMESTEP
50
ITEM: NUMBER OF ATOMS
18
ITEM: BOX BOUNDS xy xz yz pp pp pp
-2.8050999999999999e+00 5.6102000000000007e+00 -2.8050999999999999e+00
0.0000000000000000e+00 4.8585757200000002e+00 0.0000000000000000e+00
0.0000000000000000e+00 1.8870999999999999e+01 0.0000000000000000e+00
ITEM: ATOMS id type element x y z fx fy fz vx vy vz
1 1 C 3.51652 0.260338 7.21931 2.69991 0.25109 -1.59992 -5.74641 -8.41164 1.45994
2 2 O 3.49008 0.285753 8.3726 -0.516488 0.179944 3.2031 -2.49299 -4.24185 -0.713674
3 3 Pt 0 0 0 0 0 0 0 0 0
4 3 Pt 1.40255 2.42928 0 0 0 0 0 0 0
5 3 Pt 4.20765 2.42928 0 0 0 0 0 0 0
6 3 Pt 2.80509 0 0 0 0 0 0 0 0
7 3 Pt 2.80512 1.6195 2.29038 0 0 0 0 0 0
8 3 Pt 3e-05 1.6195 2.29038 0 0 0 0 0 0
9 3 Pt 1.40257 4.04879 2.29038 0 0 0 0 0 0
10 3 Pt -1.40252 4.04879 2.29038 0 0 0 0 0 0
11 3 Pt 3.10241 2.94391 4.62198 0.101004 -0.175786 -0.213413 0.540523 -1.05694 -1.81997
12 3 Pt 4.47552 0.447486 4.37584 0.00698848 0.236601 -0.025251 -0.192638 0.0144141 0.199585
13 3 Pt 1.59091 0.579209 4.5709 -0.3939 0.0451336 -0.491555 0.745087 -0.506552 0.440164
14 3 Pt 0.232967 2.95156 4.64304 -0.131228 -0.111832 -0.378196 0.509268 0.159675 -0.388768
15 3 Pt -1.64683 2.89312 6.87202 0.0910648 -0.156833 0.112847 -0.612344 2.00448 -0.000359775
16 3 Pt 1.23195 2.67459 6.81516 -0.0185301 -0.736581 -0.171181 -0.440991 0.453111 -0.194116
17 3 Pt -0.204548 0.410339 6.65589 -0.78882 0.11427 -0.165517 -0.914484 -1.02481 -0.366082
18 3 Pt 2.28214 0.321538 5.8976 -1.05686 0.382775 -0.367489 0.743448 1.57928 -0.949438
ITEM: TIMESTEP
100
ITEM: NUMBER OF ATOMS
18
ITEM: BOX BOUNDS xy xz yz pp pp pp
-2.8050999999999999e+00 5.6102000000000007e+00 -2.8050999999999999e+00
0.0000000000000000e+00 4.8585757200000002e+00 0.0000000000000000e+00
0.0000000000000000e+00 1.8870999999999999e+01 0.0000000000000000e+00
ITEM: ATOMS id type element x y z fx fy fz vx vy vz
1 1 C 3.61002 0.413068 7.63853 -0.333688 -0.219285 -1.42652 7.11592 -6.68766 -1.25676
2 2 O 3.11684 0.364557 8.67254 0.0565647 -0.00631786 0.614657 1.45402 5.15941 -7.40897
3 3 Pt 0 0 0 0 0 0 0 0 0
4 3 Pt 1.40255 2.42928 0 0 0 0 0 0 0
5 3 Pt 4.20765 2.42928 0 0 0 0 0 0 0
6 3 Pt 2.80509 0 0 0 0 0 0 0 0
7 3 Pt 2.80512 1.6195 2.29038 0 0 0 0 0 0
8 3 Pt 3e-05 1.6195 2.29038 0 0 0 0 0 0
9 3 Pt 1.40257 4.04879 2.29038 0 0 0 0 0 0
10 3 Pt -1.40252 4.04879 2.29038 0 0 0 0 0 0
11 3 Pt 3.1468 2.86981 4.46705 -0.272892 0.226539 0.503958 -0.0101254 -0.00545166 -0.561793
12 3 Pt 4.4891 0.468645 4.36825 0.217036 -0.114474 -0.177101 0.569493 0.0512038 -0.339896
13 3 Pt 1.58002 0.523254 4.52855 -0.0552301 -0.00130698 0.171639 -0.651787 -0.637198 -0.928141
14 3 Pt 0.259837 2.95599 4.56025 0.111938 0.13479 0.206351 0.274636 0.176772 -0.694023
15 3 Pt -1.65653 2.9743 6.89056 0.196753 0.340573 -0.252029 0.455935 0.486335 -0.0532604
16 3 Pt 1.16485 2.64781 6.7738 -0.170504 0.276726 -0.0244509 -0.876893 0.514568 -0.360869
17 3 Pt 5.27277 0.364263 6.57101 -0.00985213 -0.107215 -0.0381264 -2.80534 -0.406449 -0.617968
18 3 Pt 2.42478 0.488346 5.98367 0.258786 -0.410647 0.90707 2.31506 0.821066 2.57687
