ITEM: TIMESTEP
0
ITEM: NUMBER OF ATOMS
37
ITEM: BOX BOUNDS xy xz yz pp pp pp
0.0000000000000000e+00 1.2825872982787001e+01 4.2752909942623303e+00
0.0000000000000000e+00 7.4050212192040297e+00 0.0000000000000000e+00
0.0000000000000000e+00 2.3271736528575300e+01 0.0000000000000000e+00
ITEM: ATOMS id type element x y z fx fy fz
1 2 Pt 2.85017 1.64554 1.16359 0 0 0
2 2 Pt 4.27529 4.11393 1.16359 0 0 0
3 2 Pt 5.70037 6.58225 1.16359 0 0 0
10 2 Pt 4.28239 2.46854 3.52101 0 0 0
11 2 Pt 5.70012 4.93893 3.50077 0 0 0
12 2 Pt 2.85179 0.00355441 3.49774 0 0 0
16 2 Pt 1.42987 2.46506 3.49867 0 0 0
17 2 Pt 2.85786 4.93915 3.49937 0 0 0
18 2 Pt 0.00500209 0.00022215 3.53451 0 0 0
19 2 Pt 1.44135 0.826904 5.81703 -0.0443011 -0.00136644 -0.173745
20 2 Pt 2.87264 3.28804 5.82026 -0.0234121 0.0696818 0.0962868
21 2 Pt 4.282 5.74262 5.82522 -0.0220593 -0.0486137 0.0215992
22 2 Pt 4.28374 0.832746 5.82187 0.00658345 0.00336654 -0.124685
23 2 Pt 5.68909 3.29178 5.84213 -0.051126 0.0307157 -0.0171895
24 2 Pt 7.12837 5.75947 5.78201 0.00983833 -0.012517 -0.0955455
28 2 Pt 2.81132 1.59606 8.14902 0.310567 0.36303 -0.239702
29 2 Pt 4.25206 4.1902 8.27607 -0.318175 -0.455799 -0.249894
30 2 Pt 5.73 6.5852 8.12865 -0.0929029 -0.111804 -0.251924
37 1 O 2.48124 3.84774 10.4137 -0.319766 0.195226 -2.73877
4 2 Pt 5.70042 1.64554 1.16359 0 0 0
5 2 Pt 7.12554 4.11393 1.16359 0 0 0
6 2 Pt 8.55062 6.58225 1.16359 0 0 0
7 2 Pt 8.55058 1.64554 1.16359 0 0 0
8 2 Pt 9.97571 4.11393 1.16359 0 0 0
9 2 Pt 11.4008 6.58225 1.16359 0 0 0
13 2 Pt 7.12883 2.46269 3.49984 0 0 0
14 2 Pt 8.55293 4.93685 3.4875 0 0 0
15 2 Pt 5.70721 0.00229556 3.49937 0 0 0
25 2 Pt 7.12413 0.816918 5.82798 0.04176 -0.00220861 -0.214229
26 2 Pt 8.5642 3.29073 5.78865 0.079874 0.0590741 0.0499601
27 2 Pt 9.99001 5.75782 5.78835 0.00996904 -0.10797 0.0870547
31 2 Pt 5.76868 1.60484 8.15014 -0.341137 0.234151 -0.329023
32 2 Pt 7.13482 4.11017 8.08346 -0.139948 -0.0179352 -0.157319
33 2 Pt 8.55814 6.58401 8.08353 0.0520171 0.0211555 -0.164827
34 2 Pt 8.55625 1.64064 8.13137 -0.00814023 0.013217 -0.292354
35 2 Pt 9.98975 4.09828 8.13993 0.892286 -0.192395 1.48076
36 2 Pt 11.4249 6.58274 8.17741 -0.056039 -0.0326093 -0.447165
ITEM: TIMESTEP
1
ITEM: NUMBER OF ATOMS
37
ITEM: BOX BOUNDS xy xz yz pp pp pp
0.0000000000000000e+00 1.2825872982787001e+01 4.2752909942623303e+00
0.0000000000000000e+00 7.4050212192040297e+00 0.0000000000000000e+00
0.0000000000000000e+00 2.3271736528575300e+01 0.0000000000000000e+00
ITEM: ATOMS id type element x y z fx fy fz
1 2 Pt 2.85017 1.64554 1.16359 0 0 0
2 2 Pt 4.27529 4.11393 1.16359 0 0 0
3 2 Pt 5.70037 6.58225 1.16359 0 0 0
10 2 Pt 4.28239 2.46854 3.52101 0 0 0
11 2 Pt 5.70012 4.93893 3.50077 0 0 0
12 2 Pt 2.85179 0.00355441 3.49774 0 0 0
16 2 Pt 1.42987 2.46506 3.49867 0 0 0
17 2 Pt 2.85786 4.93915 3.49937 0 0 0
18 2 Pt 0.00500209 0.00022215 3.53451 0 0 0
19 2 Pt 1.44135 0.826904 5.81703 -0.0442701 -0.00133971 -0.173673
20 2 Pt 2.87264 3.28804 5.82026 -0.0234443 0.0696786 0.0961005
21 2 Pt 4.282 5.74262 5.82522 -0.0220464 -0.0486408 0.021615
22 2 Pt 4.28374 0.832746 5.82187 0.00655493 0.00337058 -0.124647
23 2 Pt 5.68909 3.29178 5.84213 -0.051155 0.0307692 -0.0171278
24 2 Pt 7.12837 5.75947 5.78201 0.00984807 -0.012517 -0.0955281
28 2 Pt 2.81133 1.59607 8.14901 0.310573 0.362631 -0.239765
29 2 Pt 4.25205 4.19019 8.27606 -0.318541 -0.455868 -0.249058
30 2 Pt 5.73 6.5852 8.12864 -0.0928336 -0.111757 -0.251966
37 1 O 2.48114 3.8478 10.4129 -0.320305 0.195632 -2.74193
4 2 Pt 5.70042 1.64554 1.16359 0 0 0
5 2 Pt 7.12554 4.11393 1.16359 0 0 0
6 2 Pt 8.55062 6.58225 1.16359 0 0 0
7 2 Pt 8.55058 1.64554 1.16359 0 0 0
8 2 Pt 9.97571 4.11393 1.16359 0 0 0
9 2 Pt 11.4008 6.58225 1.16359 0 0 0
13 2 Pt 7.12883 2.46269 3.49984 0 0 0
14 2 Pt 8.55293 4.93685 3.4875 0 0 0
15 2 Pt 5.70721 0.00229556 3.49937 0 0 0
25 2 Pt 7.12413 0.816918 5.82797 0.0417542 -0.00220286 -0.214208
26 2 Pt 8.5642 3.29073 5.78865 0.0800121 0.0591964 0.0501434
27 2 Pt 9.99001 5.75782 5.78835 0.00993211 -0.108075 0.0871071
31 2 Pt 5.76867 1.60485 8.15013 -0.34103 0.23405 -0.329009
32 2 Pt 7.13482 4.11017 8.08346 -0.140083 -0.0179167 -0.157408
33 2 Pt 8.55814 6.58401 8.08353 0.0518789 0.021311 -0.164889
34 2 Pt 8.55625 1.64064 8.13136 -0.00826505 0.0130503 -0.292398
35 2 Pt 9.98977 4.09828 8.13997 0.893284 -0.192705 1.48331
36 2 Pt 11.4249 6.58274 8.1774 -0.0559671 -0.0322658 -0.447245
ITEM: TIMESTEP
2
ITEM: NUMBER OF ATOMS
37
ITEM: BOX BOUNDS xy xz yz pp pp pp
0.0000000000000000e+00 1.2825872982787001e+01 4.2752909942623303e+00
0.0000000000000000e+00 7.4050212192040297e+00 0.0000000000000000e+00
0.0000000000000000e+00 2.3271736528575300e+01 0.0000000000000000e+00
ITEM: ATOMS id type element x y z fx fy fz
1 2 Pt 2.85017 1.64554 1.16359 0 0 0
2 2 Pt 4.27529 4.11393 1.16359 0 0 0
3 2 Pt 5.70037 6.58225 1.16359 0 0 0
10 2 Pt 4.28239 2.46854 3.52101 0 0 0
11 2 Pt 5.70012 4.93893 3.50077 0 0 0
12 2 Pt 2.85179 0.00355441 3.49774 0 0 0
16 2 Pt 1.42987 2.46506 3.49867 0 0 0
17 2 Pt 2.85786 4.93915 3.49937 0 0 0
18 2 Pt 0.00500209 0.00022215 3.53451 0 0 0
19 2 Pt 1.44134 0.826904 5.817 -0.044143 -0.0012546 -0.173375
20 2 Pt 2.87264 3.28805 5.82028 -0.0237027 0.0696918 0.0954762
21 2 Pt 4.282 5.74261 5.82522 -0.0219799 -0.0486729 0.0215424
22 2 Pt 4.28374 0.832747 5.82185 0.00646003 0.00331812 -0.12459
23 2 Pt 5.68908 3.29179 5.84213 -0.0511486 0.0309142 -0.0170855
24 2 Pt 7.12837 5.75947 5.78199 0.0099022 -0.0125185 -0.0954462
28 2 Pt 2.81138 1.59613 8.14897 0.310396 0.361162 -0.239873
29 2 Pt 4.252 4.19011 8.27602 -0.319165 -0.455814 -0.246716
30 2 Pt 5.72998 6.58518 8.1286 -0.09255 -0.111515 -0.252059
37 1 O 2.48089 3.84796 10.4107 -0.322131 0.196779 -2.75081
4 2 Pt 5.70042 1.64554 1.16359 0 0 0
5 2 Pt 7.12554 4.11393 1.16359 0 0 0
6 2 Pt 8.55062 6.58225 1.16359 0 0 0
7 2 Pt 8.55058 1.64554 1.16359 0 0 0
8 2 Pt 9.97571 4.11393 1.16359 0 0 0
9 2 Pt 11.4008 6.58225 1.16359 0 0 0
13 2 Pt 7.12883 2.46269 3.49984 0 0 0
14 2 Pt 8.55293 4.93685 3.4875 0 0 0
15 2 Pt 5.70721 0.00229556 3.49937 0 0 0
25 2 Pt 7.12414 0.816918 5.82794 0.0417113 -0.00215141 -0.214073
26 2 Pt 8.56422 3.29074 5.78866 0.0804873 0.0596007 0.0508144
27 2 Pt 9.99001 5.7578 5.78837 0.00977945 -0.108472 0.0873053
31 2 Pt 5.76861 1.60489 8.15007 -0.340522 0.233644 -0.328874
32 2 Pt 7.13479 4.11017 8.08343 -0.140185 -0.0178281 -0.157619
33 2 Pt 8.55815 6.58401 8.0835 0.0514579 0.0215978 -0.165027
34 2 Pt 8.55625 1.64064 8.13131 -0.00860909 0.012643 -0.292486
35 2 Pt 9.98993 4.09824 8.14023 0.895635 -0.193511 1.49014
36 2 Pt 11.4249 6.58273 8.17732 -0.0557728 -0.0312084 -0.447325
ITEM: TIMESTEP
3
ITEM: NUMBER OF ATOMS
37
ITEM: BOX BOUNDS xy xz yz pp pp pp
0.0000000000000000e+00 1.2825872982787001e+01 4.2752909942623303e+00
0.0000000000000000e+00 7.4050212192040297e+00 0.0000000000000000e+00
0.0000000000000000e+00 2.3271736528575300e+01 0.0000000000000000e+00
ITEM: ATOMS id type element x y z fx fy fz
1 2 Pt 2.85017 1.64554 1.16359 0 0 0
2 2 Pt 4.27529 4.11393 1.16359 0 0 0
3 2 Pt 5.70037 6.58225 1.16359 0 0 0
10 2 Pt 4.28239 2.46854 3.52101 0 0 0
11 2 Pt 5.70012 4.93893 3.50077 0 0 0
12 2 Pt 2.85179 0.00355441 3.49774 0 0 0
16 2 Pt 1.42987 2.46506 3.49867 0 0 0
17 2 Pt 2.85786 4.93915 3.49937 0 0 0
18 2 Pt 0.00500209 0.00022215 3.53451 0 0 0
19 2 Pt 1.44132 0.826903 5.81693 -0.0438964 -0.00110589 -0.172801
20 2 Pt 2.87263 3.28808 5.82032 -0.0242847 0.0697342 0.0943494
21 2 Pt 4.28199 5.74259 5.82523 -0.0218427 -0.0486853 0.0213131
22 2 Pt 4.28374 0.832748 5.8218 0.00628963 0.00317265 -0.124542
23 2 Pt 5.68906 3.2918 5.84212 -0.051056 0.0311486 -0.0171388
24 2 Pt 7.12838 5.75946 5.78195 0.0100167 -0.0125225 -0.0952802
28 2 Pt 2.8115 1.59627 8.14888 0.309927 0.358401 -0.239994
29 2 Pt 4.25187 4.18993 8.27592 -0.319804 -0.455492 -0.242868
30 2 Pt 5.72995 6.58513 8.1285 -0.0919994 -0.111015 -0.252189
37 1 O 2.48048 3.84821 10.4072 -0.325396 0.198672 -2.76532
4 2 Pt 5.70042 1.64554 1.16359 0 0 0
5 2 Pt 7.12554 4.11393 1.16359 0 0 0
6 2 Pt 8.55062 6.58225 1.16359 0 0 0
7 2 Pt 8.55058 1.64554 1.16359 0 0 0
8 2 Pt 9.97571 4.11393 1.16359 0 0 0
9 2 Pt 11.4008 6.58225 1.16359 0 0 0
13 2 Pt 7.12883 2.46269 3.49984 0 0 0
14 2 Pt 8.55293 4.93685 3.4875 0 0 0
15 2 Pt 5.70721 0.00229556 3.49937 0 0 0
25 2 Pt 7.12415 0.816917 5.82785 0.0416159 -0.00203365 -0.213781
26 2 Pt 8.56425 3.29076 5.78868 0.0813502 0.0603226 0.0520633
27 2 Pt 9.99002 5.75776 5.7884 0.00948254 -0.109218 0.0876755
31 2 Pt 5.76848 1.60498 8.14995 -0.339488 0.232859 -0.328563
32 2 Pt 7.13474 4.11016 8.08337 -0.140094 -0.0176482 -0.157931
33 2 Pt 8.55817 6.58402 8.08343 0.0507336 0.0219303 -0.165221
34 2 Pt 8.55625 1.64065 8.1312 -0.00917119 0.0120275 -0.292597
35 2 Pt 9.99028 4.09817 8.1408 0.899039 -0.194767 1.50103
36 2 Pt 11.4249 6.58272 8.17715 -0.0554585 -0.0293684 -0.447324
ITEM: TIMESTEP
4
ITEM: NUMBER OF ATOMS
37
ITEM: BOX BOUNDS xy xz yz pp pp pp
0.0000000000000000e+00 1.2825872982787001e+01 4.2752909942623303e+00
0.0000000000000000e+00 7.4050212192040297e+00 0.0000000000000000e+00
0.0000000000000000e+00 2.3271736528575300e+01 0.0000000000000000e+00
ITEM: ATOMS id type element x y z fx fy fz
1 2 Pt 2.85017 1.64554 1.16359 0 0 0
2 2 Pt 4.27529 4.11393 1.16359 0 0 0
3 2 Pt 5.70037 6.58225 1.16359 0 0 0
10 2 Pt 4.28239 2.46854 3.52101 0 0 0
11 2 Pt 5.70012 4.93893 3.50077 0 0 0
12 2 Pt 2.85179 0.00355441 3.49774 0 0 0
16 2 Pt 1.42987 2.46506 3.49867 0 0 0
17 2 Pt 2.85786 4.93915 3.49937 0 0 0
18 2 Pt 0.00500209 0.00022215 3.53451 0 0 0
19 2 Pt 1.4413 0.826902 5.81682 -0.0435156 -0.000891328 -0.171919
20 2 Pt 2.87261 3.28813 5.82038 -0.0252567 0.0698146 0.0926762
21 2 Pt 4.28197 5.74256 5.82525 -0.0216234 -0.0486616 0.0208788
22 2 Pt 4.28375 0.83275 5.82172 0.006038 0.00290956 -0.124523
23 2 Pt 5.68903 3.29182 5.84211 -0.0508414 0.0314709 -0.0173419
24 2 Pt 7.12838 5.75945 5.78189 0.0102024 -0.0125302 -0.0950171
28 2 Pt 2.8117 1.5965 8.14872 0.309091 0.354178 -0.240118
29 2 Pt 4.25167 4.18964 8.27577 -0.320256 -0.454795 -0.237543
30 2 Pt 5.72989 6.58506 8.12834 -0.0911464 -0.110217 -0.252343
37 1 O 2.47993 3.84855 10.4025 -0.330155 0.201299 -2.78517
4 2 Pt 5.70042 1.64554 1.16359 0 0 0
5 2 Pt 7.12554 4.11393 1.16359 0 0 0
6 2 Pt 8.55062 6.58225 1.16359 0 0 0
7 2 Pt 8.55058 1.64554 1.16359 0 0 0
8 2 Pt 9.97571 4.11393 1.16359 0 0 0
9 2 Pt 11.4008 6.58225 1.16359 0 0 0
13 2 Pt 7.12883 2.46269 3.49984 0 0 0
14 2 Pt 8.55293 4.93685 3.4875 0 0 0
15 2 Pt 5.70721 0.00229556 3.49937 0 0 0
25 2 Pt 7.12418 0.816915 5.82772 0.0414565 -0.00183533 -0.213301
26 2 Pt 8.5643 3.2908 5.78871 0.0826307 0.0613814 0.053945
27 2 Pt 9.99002 5.75769 5.78846 0.00902314 -0.110348 0.0882305
31 2 Pt 5.76826 1.60513 8.14974 -0.337844 0.231648 -0.328039
32 2 Pt 7.13465 4.11015 8.08327 -0.1397 -0.0173627 -0.158328
33 2 Pt 8.5582 6.58404 8.08333 0.0496953 0.0222457 -0.165457
34 2 Pt 8.55624 1.64066 8.13101 -0.00994932 0.0112286 -0.292716
35 2 Pt 9.99085 4.09804 8.14176 0.903206 -0.196418 1.51564
36 2 Pt 11.4248 6.5827 8.17686 -0.0550257 -0.026693 -0.447189
ITEM: TIMESTEP
5
ITEM: NUMBER OF ATOMS
37
ITEM: BOX BOUNDS xy xz yz pp pp pp
0.0000000000000000e+00 1.2825872982787001e+01 4.2752909942623303e+00
0.0000000000000000e+00 7.4050212192040297e+00 0.0000000000000000e+00
0.0000000000000000e+00 2.3271736528575300e+01 0.0000000000000000e+00
ITEM: ATOMS id type element x y z fx fy fz
1 2 Pt 2.85017 1.64554 1.16359 0 0 0
2 2 Pt 4.27529 4.11393 1.16359 0 0 0
3 2 Pt 5.70037 6.58225 1.16359 0 0 0
10 2 Pt 4.28239 2.46854 3.52101 0 0 0
11 2 Pt 5.70012 4.93893 3.50077 0 0 0
12 2 Pt 2.85179 0.00355441 3.49774 0 0 0
16 2 Pt 1.42987 2.46506 3.49867 0 0 0
17 2 Pt 2.85786 4.93915 3.49937 0 0 0
18 2 Pt 0.00500209 0.00022215 3.53451 0 0 0
19 2 Pt 1.44126 0.826901 5.81666 -0.042992 -0.000610888 -0.170711
20 2 Pt 2.87259 3.28819 5.82046 -0.0266613 0.0699394 0.0904287
21 2 Pt 4.28195 5.74251 5.82527 -0.0213159 -0.0485919 0.0202066
22 2 Pt 4.28375 0.832753 5.8216 0.00570228 0.00251339 -0.124548
23 2 Pt 5.68898 3.29185 5.84209 -0.0504806 0.0318797 -0.0177323
24 2 Pt 7.12839 5.75944 5.7818 0.0104667 -0.012543 -0.0946489
28 2 Pt 2.81199 1.59684 8.1485 0.307844 0.348361 -0.240251
29 2 Pt 4.25137 4.18922 8.27554 -0.32035 -0.45364 -0.230789
30 2 Pt 5.7298 6.58496 8.12811 -0.0899689 -0.1091 -0.252515
37 1 O 2.47922 3.84897 10.3965 -0.336385 0.204633 -2.80989
4 2 Pt 5.70042 1.64554 1.16359 0 0 0
5 2 Pt 7.12554 4.11393 1.16359 0 0 0
6 2 Pt 8.55062 6.58225 1.16359 0 0 0
7 2 Pt 8.55058 1.64554 1.16359 0 0 0
8 2 Pt 9.97571 4.11393 1.16359 0 0 0
9 2 Pt 11.4008 6.58225 1.16359 0 0 0
13 2 Pt 7.12883 2.46269 3.49984 0 0 0
14 2 Pt 8.55293 4.93685 3.4875 0 0 0
15 2 Pt 5.70721 0.00229556 3.49937 0 0 0
25 2 Pt 7.12422 0.816914 5.82752 0.0412251 -0.00154704 -0.212616
26 2 Pt 8.56438 3.29086 5.78876 0.0843414 0.0627834 0.0564855
27 2 Pt 9.99003 5.75758 5.78854 0.00839132 -0.111878 0.0889718
31 2 Pt 5.76795 1.60534 8.14943 -0.335532 0.229978 -0.327274
32 2 Pt 7.13452 4.11013 8.08312 -0.138928 -0.0169632 -0.158798
33 2 Pt 8.55825 6.58406 8.08317 0.0483404 0.0224975 -0.165722
34 2 Pt 8.55623 1.64067 8.13074 -0.0109404 0.0102663 -0.292829
35 2 Pt 9.99169 4.09786 8.14316 0.907836 -0.198401 1.53353
36 2 Pt 11.4248 6.58268 8.17644 -0.0544747 -0.0231397 -0.446891
ITEM: TIMESTEP
6
ITEM: NUMBER OF ATOMS
37
ITEM: BOX BOUNDS xy xz yz pp pp pp
0.0000000000000000e+00 1.2825872982787001e+01 4.2752909942623303e+00
0.0000000000000000e+00 7.4050212192040297e+00 0.0000000000000000e+00
0.0000000000000000e+00 2.3271736528575300e+01 0.0000000000000000e+00
ITEM: ATOMS id type element x y z fx fy fz
1 2 Pt 2.85017 1.64554 1.16359 0 0 0
2 2 Pt 4.27529 4.11393 1.16359 0 0 0
3 2 Pt 5.70037 6.58225 1.16359 0 0 0
10 2 Pt 4.28239 2.46854 3.52101 0 0 0
11 2 Pt 5.70012 4.93893 3.50077 0 0 0
12 2 Pt 2.85179 0.00355441 3.49774 0 0 0
16 2 Pt 1.42987 2.46506 3.49867 0 0 0
17 2 Pt 2.85786 4.93915 3.49937 0 0 0
18 2 Pt 0.00500209 0.00022215 3.53451 0 0 0
19 2 Pt 1.4412 0.8269 5.81644 -0.0423224 -0.000266412 -0.169176
20 2 Pt 2.87256 3.28828 5.82058 -0.0285224 0.0701127 0.0875927
21 2 Pt 4.28193 5.74245 5.82529 -0.0209177 -0.0484718 0.0192752
22 2 Pt 4.28376 0.832756 5.82145 0.00528214 0.00197592 -0.124627
23 2 Pt 5.68892 3.29189 5.84207 -0.0499587 0.0323741 -0.0183349
24 2 Pt 7.1284 5.75943 5.78169 0.0108138 -0.0125624 -0.0941718
28 2 Pt 2.81237 1.59727 8.14821 0.306161 0.340845 -0.240414
29 2 Pt 4.25097 4.18865 8.27525 -0.319925 -0.451964 -0.222684
30 2 Pt 5.72969 6.58482 8.12779 -0.088456 -0.107658 -0.252696
37 1 O 2.47838 3.84949 10.3894 -0.343976 0.208635 -2.83879
4 2 Pt 5.70042 1.64554 1.16359 0 0 0
5 2 Pt 7.12554 4.11393 1.16359 0 0 0
6 2 Pt 8.55062 6.58225 1.16359 0 0 0
7 2 Pt 8.55058 1.64554 1.16359 0 0 0
8 2 Pt 9.97571 4.11393 1.16359 0 0 0
9 2 Pt 11.4008 6.58225 1.16359 0 0 0
13 2 Pt 7.12883 2.46269 3.49984 0 0 0
14 2 Pt 8.55293 4.93685 3.4875 0 0 0
15 2 Pt 5.70721 0.00229556 3.49937 0 0 0
25 2 Pt 7.12427 0.816911 5.82725 0.0409156 -0.00116306 -0.211717
26 2 Pt 8.56448 3.29094 5.78883 0.0864796 0.0645229 0.0596855
27 2 Pt 9.99004 5.75745 5.78865 0.00758405 -0.113809 0.0898904
31 2 Pt 5.76753 1.60563 8.14903 -0.332518 0.227832 -0.326252
32 2 Pt 7.13435 4.11011 8.08292 -0.137732 -0.0164453 -0.159327
33 2 Pt 8.55831 6.58408 8.08297 0.046674 0.0226506 -0.166004
34 2 Pt 8.55622 1.64068 8.13038 -0.01214 0.00915786 -0.292923
35 2 Pt 9.9928 4.09762 8.14504 0.912595 -0.200636 1.55416
36 2 Pt 11.4247 6.58264 8.17589 -0.0538053 -0.0186743 -0.446416
ITEM: TIMESTEP
7
ITEM: NUMBER OF ATOMS
37
ITEM: BOX BOUNDS xy xz yz pp pp pp
0.0000000000000000e+00 1.2825872982787001e+01 4.2752909942623303e+00
0.0000000000000000e+00 7.4050212192040297e+00 0.0000000000000000e+00
0.0000000000000000e+00 2.3271736528575300e+01 0.0000000000000000e+00
ITEM: ATOMS id type element x y z fx fy fz
1 2 Pt 2.85017 1.64554 1.16359 0 0 0
2 2 Pt 4.27529 4.11393 1.16359 0 0 0
3 2 Pt 5.70037 6.58225 1.16359 0 0 0
10 2 Pt 4.28239 2.46854 3.52101 0 0 0
11 2 Pt 5.70012 4.93893 3.50077 0 0 0
12 2 Pt 2.85179 0.00355441 3.49774 0 0 0
16 2 Pt 1.42987 2.46506 3.49867 0 0 0
17 2 Pt 2.85786 4.93915 3.49937 0 0 0
18 2 Pt 0.00500209 0.00022215 3.53451 0 0 0
19 2 Pt 1.44113 0.826899 5.81618 -0.0415077 0.000138564 -0.167323
20 2 Pt 2.87251 3.28839 5.82072 -0.0308482 0.0703371 0.0841659
21 2 Pt 4.28189 5.74238 5.82532 -0.02043 -0.0483014 0.0180725
22 2 Pt 4.28377 0.83276 5.82125 0.00477966 0.00129459 -0.124765
23 2 Pt 5.68884 3.29194 5.84204 -0.0492683 0.0329527 -0.0191644
24 2 Pt 7.12842 5.75941 5.78154 0.0112453 -0.0125899 -0.0935856
28 2 Pt 2.81285 1.59781 8.14783 0.304036 0.331543 -0.240639
29 2 Pt 4.25048 4.18795 8.27489 -0.318826 -0.449717 -0.213329
30 2 Pt 5.72955 6.58465 8.1274 -0.0866057 -0.105898 -0.252879
37 1 O 2.47738 3.8501 10.381 -0.352739 0.213241 -2.87097
4 2 Pt 5.70042 1.64554 1.16359 0 0 0
5 2 Pt 7.12554 4.11393 1.16359 0 0 0
6 2 Pt 8.55062 6.58225 1.16359 0 0 0
7 2 Pt 8.55058 1.64554 1.16359 0 0 0
8 2 Pt 9.97571 4.11393 1.16359 0 0 0
9 2 Pt 11.4008 6.58225 1.16359 0 0 0
13 2 Pt 7.12883 2.46269 3.49984 0 0 0
14 2 Pt 8.55293 4.93685 3.4875 0 0 0
15 2 Pt 5.70721 0.00229556 3.49937 0 0 0
25 2 Pt 7.12434 0.816909 5.82692 0.0405234 -0.000680576 -0.210602
26 2 Pt 8.56461 3.29103 5.78892 0.0890284 0.0665833 0.0635226
27 2 Pt 9.99005 5.75727 5.78879 0.00660416 -0.116125 0.0909675
31 2 Pt 5.76701 1.60599 8.14852 -0.328784 0.225204 -0.324962
32 2 Pt 7.13413 4.11008 8.08268 -0.136086 -0.0158086 -0.159905
33 2 Pt 8.55839 6.58412 8.08271 0.0447082 0.0226777 -0.166293
34 2 Pt 8.5562 1.6407 8.12992 -0.0135415 0.00791963 -0.292984
35 2 Pt 9.99421 4.09731 8.14742 0.917095 -0.203026 1.57679
36 2 Pt 11.4246 6.58261 8.1752 -0.0530168 -0.0132698 -0.445761
ITEM: TIMESTEP
8
ITEM: NUMBER OF ATOMS
37
ITEM: BOX BOUNDS xy xz yz pp pp pp
0.0000000000000000e+00 1.2825872982787001e+01 4.2752909942623303e+00
0.0000000000000000e+00 7.4050212192040297e+00 0.0000000000000000e+00
0.0000000000000000e+00 2.3271736528575300e+01 0.0000000000000000e+00
ITEM: ATOMS id type element x y z fx fy fz
1 2 Pt 2.85017 1.64554 1.16359 0 0 0
2 2 Pt 4.27529 4.11393 1.16359 0 0 0
3 2 Pt 5.70037 6.58225 1.16359 0 0 0
10 2 Pt 4.28239 2.46854 3.52101 0 0 0
11 2 Pt 5.70012 4.93893 3.50077 0 0 0
12 2 Pt 2.85179 0.00355441 3.49774 0 0 0
16 2 Pt 1.42987 2.46506 3.49867 0 0 0
17 2 Pt 2.85786 4.93915 3.49937 0 0 0
18 2 Pt 0.00500209 0.00022215 3.53451 0 0 0
19 2 Pt 1.44105 0.826899 5.81586 -0.0405523 0.000598856 -0.165169
20 2 Pt 2.87246 3.28852 5.82088 -0.0336334 0.070613 0.0801566
21 2 Pt 4.28185 5.74229 5.82536 -0.0198565 -0.0480845 0.0165933
22 2 Pt 4.28378 0.832764 5.82102 0.00419925 0.000471327 -0.124968
23 2 Pt 5.68874 3.292 5.84201 -0.048408 0.0336143 -0.0202283
24 2 Pt 7.12844 5.75938 5.78136 0.0117609 -0.0126274 -0.0928933
28 2 Pt 2.81343 1.59846 8.14738 0.301474 0.320384 -0.24097
29 2 Pt 4.24988 4.1871 8.27447 -0.316892 -0.446854 -0.202859
30 2 Pt 5.72938 6.58445 8.12693 -0.0844234 -0.103837 -0.253058
37 1 O 2.47624 3.85079 10.3716 -0.362383 0.218368 -2.90525
4 2 Pt 5.70042 1.64554 1.16359 0 0 0
5 2 Pt 7.12554 4.11393 1.16359 0 0 0
6 2 Pt 8.55062 6.58225 1.16359 0 0 0
7 2 Pt 8.55058 1.64554 1.16359 0 0 0
8 2 Pt 9.97571 4.11393 1.16359 0 0 0
9 2 Pt 11.4008 6.58225 1.16359 0 0 0
13 2 Pt 7.12883 2.46269 3.49984 0 0 0
14 2 Pt 8.55293 4.93685 3.4875 0 0 0
15 2 Pt 5.70721 0.00229556 3.49937 0 0 0
25 2 Pt 7.12441 0.816907 5.82653 0.0400446 -9.9057e-05 -0.209277
26 2 Pt 8.56477 3.29115 5.78903 0.0919565 0.0689367 0.0679518
27 2 Pt 9.99007 5.75706 5.78896 0.00545959 -0.118797 0.0921738
31 2 Pt 5.76638 1.60642 8.1479 -0.324324 0.222098 -0.323398
32 2 Pt 7.13387 4.11005 8.08238 -0.133981 -0.0150554 -0.160518
33 2 Pt 8.55847 6.58416 8.0824 0.042462 0.0225562 -0.166577
34 2 Pt 8.55618 1.64071 8.12937 -0.0151352 0.00656892 -0.292999
35 2 Pt 9.99593 4.09693 8.15033 0.920866 -0.205449 1.60051
36 2 Pt 11.4245 6.58257 8.17436 -0.0521087 -0.00690626 -0.444938
ITEM: TIMESTEP
9
ITEM: NUMBER OF ATOMS
37
ITEM: BOX BOUNDS xy xz yz pp pp pp
0.0000000000000000e+00 1.2825872982787001e+01 4.2752909942623303e+00
0.0000000000000000e+00 7.4050212192040297e+00 0.0000000000000000e+00
0.0000000000000000e+00 2.3271736528575300e+01 0.0000000000000000e+00
ITEM: ATOMS id type element x y z fx fy fz
1 2 Pt 2.85017 1.64554 1.16359 0 0 0
2 2 Pt 4.27529 4.11393 1.16359 0 0 0
3 2 Pt 5.70037 6.58225 1.16359 0 0 0
10 2 Pt 4.28239 2.46854 3.52101 0 0 0
11 2 Pt 5.70012 4.93893 3.50077 0 0 0
12 2 Pt 2.85179 0.00355441 3.49774 0 0 0
16 2 Pt 1.42987 2.46506 3.49867 0 0 0
17 2 Pt 2.85786 4.93915 3.49937 0 0 0
18 2 Pt 0.00500209 0.00022215 3.53451 0 0 0
19 2 Pt 1.44096 0.826899 5.81549 -0.0394638 0.0011076 -0.162742
20 2 Pt 2.87239 3.28867 5.82107 -0.0368601 0.0709391 0.0755835
21 2 Pt 4.28181 5.74218 5.8254 -0.0192032 -0.0478274 0.0148372
22 2 Pt 4.28379 0.832767 5.82074 0.00354767 -0.000488589 -0.125239
23 2 Pt 5.68864 3.29207 5.84197 -0.0473809 0.0343569 -0.0215282
24 2 Pt 7.12847 5.75936 5.78115 0.0123588 -0.0126769 -0.0921007
28 2 Pt 2.8141 1.5992 8.14685 0.298489 0.307314 -0.241456
29 2 Pt 4.24917 4.1861 8.27399 -0.313953 -0.443334 -0.191437
30 2 Pt 5.72919 6.58422 8.12637 -0.0819212 -0.101501 -0.253225
37 1 O 2.47494 3.85158 10.3609 -0.37251 0.223899 -2.94014
4 2 Pt 5.70042 1.64554 1.16359 0 0 0
5 2 Pt 7.12554 4.11393 1.16359 0 0 0
6 2 Pt 8.55062 6.58225 1.16359 0 0 0
7 2 Pt 8.55058 1.64554 1.16359 0 0 0
8 2 Pt 9.97571 4.11393 1.16359 0 0 0
9 2 Pt 11.4008 6.58225 1.16359 0 0 0
13 2 Pt 7.12883 2.46269 3.49984 0 0 0
14 2 Pt 8.55293 4.93685 3.4875 0 0 0
15 2 Pt 5.70721 0.00229556 3.49937 0 0 0
25 2 Pt 7.1245 0.816905 5.82606 0.0394762 0.00058024 -0.207751
26 2 Pt 8.56497 3.2913 5.78917 0.095218 0.0715449 0.0729053
27 2 Pt 9.99008 5.7568 5.78916 0.00416262 -0.121781 0.0934683
31 2 Pt 5.76565 1.60692 8.14718 -0.319146 0.218525 -0.321558
32 2 Pt 7.13357 4.11002 8.08202 -0.13142 -0.0141904 -0.161154
33 2 Pt 8.55858 6.58421 8.08203 0.0399615 0.0222651 -0.166844
34 2 Pt 8.55615 1.64073 8.12872 -0.016908 0.00512544 -0.292951
35 2 Pt 9.99795 4.09649 8.15381 0.92334 -0.207755 1.62416
36 2 Pt 11.4244 6.58254 8.17337 -0.0510814 0.000427402 -0.44396
ITEM: TIMESTEP
10
ITEM: NUMBER OF ATOMS
37
ITEM: BOX BOUNDS xy xz yz pp pp pp
0.0000000000000000e+00 1.2825872982787001e+01 4.2752909942623303e+00
0.0000000000000000e+00 7.4050212192040297e+00 0.0000000000000000e+00
0.0000000000000000e+00 2.3271736528575300e+01 0.0000000000000000e+00
ITEM: ATOMS id type element x y z fx fy fz
1 2 Pt 2.85017 1.64554 1.16359 0 0 0
2 2 Pt 4.27529 4.11393 1.16359 0 0 0
3 2 Pt 5.70037 6.58225 1.16359 0 0 0
10 2 Pt 4.28239 2.46854 3.52101 0 0 0
11 2 Pt 5.70012 4.93893 3.50077 0 0 0
12 2 Pt 2.85179 0.00355441 3.49774 0 0 0
16 2 Pt 1.42987 2.46506 3.49867 0 0 0
17 2 Pt 2.85786 4.93915 3.49937 0 0 0
18 2 Pt 0.00500209 0.00022215 3.53451 0 0 0
19 2 Pt 1.44086 0.8269 5.81506 -0.0382521 0.00165625 -0.160075
20 2 Pt 2.87231 3.28885 5.82128 -0.0404988 0.0713113 0.0704746
21 2 Pt 4.28176 5.74206 5.82544 -0.0184776 -0.0475383 0.0128069
22 2 Pt 4.2838 0.832769 5.82042 0.00283409 -0.00157749 -0.125584
23 2 Pt 5.68851 3.29215 5.84192 -0.0461942 0.0351777 -0.0230616
24 2 Pt 7.12849 5.75932 5.78092 0.0130357 -0.0127406 -0.091216
28 2 Pt 2.81487 1.60003 8.14623 0.2951 0.292295 -0.242151
29 2 Pt 4.24836 4.18496 8.27346 -0.309832 -0.439121 -0.17926
30 2 Pt 5.72897 6.58395 8.12572 -0.0791165 -0.0989256 -0.253371
37 1 O 2.47348 3.85246 10.3491 -0.382595 0.229682 -2.97381
4 2 Pt 5.70042 1.64554 1.16359 0 0 0
5 2 Pt 7.12554 4.11393 1.16359 0 0 0
6 2 Pt 8.55062 6.58225 1.16359 0 0 0
7 2 Pt 8.55058 1.64554 1.16359 0 0 0
8 2 Pt 9.97571 4.11393 1.16359 0 0 0
9 2 Pt 11.4008 6.58225 1.16359 0 0 0
13 2 Pt 7.12883 2.46269 3.49984 0 0 0
14 2 Pt 8.55293 4.93685 3.4875 0 0 0
15 2 Pt 5.70721 0.00229556 3.49937 0 0 0
25 2 Pt 7.1246 0.816904 5.82552 0.038815 0.00135473 -0.206039
26 2 Pt 8.5652 3.29147 5.78933 0.0987513 0.0743583 0.0782922
27 2 Pt 9.9901 5.75651 5.78939 0.00272921 -0.125019 0.0947983
31 2 Pt 5.76482 1.60749 8.14636 -0.313265 0.214503 -0.319444
32 2 Pt 7.13322 4.10998 8.08162 -0.128412 -0.0132205 -0.161794
33 2 Pt 8.55869 6.58427 8.08161 0.0372395 0.0217833 -0.167078
34 2 Pt 8.55611 1.64075 8.12797 -0.0188418 0.00361276 -0.292822
35 2 Pt 10.0003 4.09597 8.15785 0.923824 -0.209763 1.64633
36 2 Pt 11.4243 6.58251 8.17223 -0.0499369 0.00873143 -0.442846
ITEM: TIMESTEP
11
ITEM: NUMBER OF ATOMS
37
ITEM: BOX BOUNDS xy xz yz pp pp pp
0.0000000000000000e+00 1.2825872982787001e+01 4.2752909942623303e+00
0.0000000000000000e+00 7.4050212192040297e+00 0.0000000000000000e+00
0.0000000000000000e+00 2.3271736528575300e+01 0.0000000000000000e+00
ITEM: ATOMS id type element x y z fx fy fz
1 2 Pt 2.85017 1.64554 1.16359 0 0 0
2 2 Pt 4.27529 4.11393 1.16359 0 0 0
3 2 Pt 5.70037 6.58225 1.16359 0 0 0
10 2 Pt 4.28239 2.46854 3.52101 0 0 0
11 2 Pt 5.70012 4.93893 3.50077 0 0 0
12 2 Pt 2.85179 0.00355441 3.49774 0 0 0
16 2 Pt 1.42987 2.46506 3.49867 0 0 0
17 2 Pt 2.85786 4.93915 3.49937 0 0 0
18 2 Pt 0.00500209 0.00022215 3.53451 0 0 0
19 2 Pt 1.44074 0.826902 5.81459 -0.0369295 0.00223454 -0.157208
20 2 Pt 2.87221 3.28906 5.82151 -0.0445086 0.0717225 0.0648668
21 2 Pt 4.2817 5.74192 5.82549 -0.0176885 -0.0472264 0.0105067
22 2 Pt 4.28381 0.832769 5.82006 0.00207006 -0.00278627 -0.126007
23 2 Pt 5.68837 3.29225 5.84186 -0.0448581 0.0360728 -0.0248236
24 2 Pt 7.12853 5.75929 5.78065 0.0137875 -0.0128208 -0.0902493
28 2 Pt 2.81574 1.60093 8.14554 0.291325 0.275309 -0.243106
29 2 Pt 4.24745 4.18368 8.27289 -0.304345 -0.434176 -0.16656
30 2 Pt 5.72873 6.58365 8.12499 -0.0760313 -0.0961485 -0.253486
37 1 O 2.47185 3.85344 10.3361 -0.391978 0.235527 -3.00408
4 2 Pt 5.70042 1.64554 1.16359 0 0 0
5 2 Pt 7.12554 4.11393 1.16359 0 0 0
6 2 Pt 8.55062 6.58225 1.16359 0 0 0
7 2 Pt 8.55058 1.64554 1.16359 0 0 0
8 2 Pt 9.97571 4.11393 1.16359 0 0 0
9 2 Pt 11.4008 6.58225 1.16359 0 0 0
13 2 Pt 7.12883 2.46269 3.49984 0 0 0
14 2 Pt 8.55293 4.93685 3.4875 0 0 0
15 2 Pt 5.70721 0.00229556 3.49937 0 0 0
25 2 Pt 7.12472 0.816905 5.82492 0.0380582 0.00222089 -0.204159
26 2 Pt 8.56547 3.29168 5.78954 0.102478 0.0773167 0.0839979
27 2 Pt 9.99011 5.75616 5.78966 0.00117828 -0.128436 0.096098
31 2 Pt 5.76389 1.60812 8.14542 -0.306704 0.210056 -0.317059
32 2 Pt 7.13284 4.10994 8.08115 -0.124973 -0.0121538 -0.162419
33 2 Pt 8.55881 6.58433 8.08113 0.0343358 0.0210871 -0.167261
34 2 Pt 8.55607 1.64077 8.12713 -0.0209126 0.0020596 -0.29259
35 2 Pt 10.0029 4.09537 8.16249 0.921499 -0.211256 1.66528
36 2 Pt 11.4241 6.5825 8.17095 -0.0486797 0.0179916 -0.441616
ITEM: TIMESTEP
12
ITEM: NUMBER OF ATOMS
37
ITEM: BOX BOUNDS xy xz yz pp pp pp
0.0000000000000000e+00 1.2825872982787001e+01 4.2752909942623303e+00
0.0000000000000000e+00 7.4050212192040297e+00 0.0000000000000000e+00
0.0000000000000000e+00 2.3271736528575300e+01 0.0000000000000000e+00
ITEM: ATOMS id type element x y z fx fy fz
1 2 Pt 2.85017 1.64554 1.16359 0 0 0
2 2 Pt 4.27529 4.11393 1.16359 0 0 0
3 2 Pt 5.70037 6.58225 1.16359 0 0 0
10 2 Pt 4.28239 2.46854 3.52101 0 0 0
11 2 Pt 5.70012 4.93893 3.50077 0 0 0
12 2 Pt 2.85179 0.00355441 3.49774 0 0 0
16 2 Pt 1.42987 2.46506 3.49867 0 0 0
17 2 Pt 2.85786 4.93915 3.49937 0 0 0
18 2 Pt 0.00500209 0.00022215 3.53451 0 0 0
19 2 Pt 1.44062 0.826906 5.81407 -0.0355096 0.00283055 -0.154187
20 2 Pt 2.87209 3.28929 5.82175 -0.0488378 0.0721618 0.0588058
21 2 Pt 4.28164 5.74177 5.82553 -0.0168454 -0.0469008 0.00794101
22 2 Pt 4.28382 0.832766 5.81966 0.00126962 -0.00410519 -0.126516
23 2 Pt 5.68822 3.29236 5.84178 -0.0433853 0.0370366 -0.0268075
24 2 Pt 7.12857 5.75925 5.78035 0.0146092 -0.01292 -0.089213
28 2 Pt 2.8167 1.6019 8.14476 0.28718 0.256369 -0.244366
29 2 Pt 4.24645 4.18225 8.27228 -0.297308 -0.428461 -0.153593
30 2 Pt 5.72847 6.58333 8.12417 -0.0726916 -0.0932127 -0.253558
37 1 O 2.47005 3.85452 10.3219 -0.399863 0.2412 -3.02846
4 2 Pt 5.70042 1.64554 1.16359 0 0 0
5 2 Pt 7.12554 4.11393 1.16359 0 0 0
6 2 Pt 8.55062 6.58225 1.16359 0 0 0
7 2 Pt 8.55058 1.64554 1.16359 0 0 0
8 2 Pt 9.97571 4.11393 1.16359 0 0 0
9 2 Pt 11.4008 6.58225 1.16359 0 0 0
13 2 Pt 7.12883 2.46269 3.49984 0 0 0
14 2 Pt 8.55293 4.93685 3.4875 0 0 0
15 2 Pt 5.70721 0.00229556 3.49937 0 0 0
25 2 Pt 7.12485 0.816908 5.82425 0.0372026 0.00317467 -0.202133
26 2 Pt 8.56578 3.29191 5.78978 0.106304 0.0803493 0.0898832
27 2 Pt 9.99013 5.75576 5.78996 -0.000468879 -0.131942 0.0972884
31 2 Pt 5.76287 1.60882 8.14439 -0.299491 0.205212 -0.314406
32 2 Pt 7.13242 4.10989 8.08063 -0.12112 -0.0109992 -0.163004
33 2 Pt 8.55893 6.5844 8.08059 0.031296 0.0201491 -0.167374
34 2 Pt 8.55601 1.64078 8.12618 -0.0230902 0.000500844 -0.29223
35 2 Pt 10.0059 4.0947 8.16774 0.915423 -0.211989 1.67903
36 2 Pt 11.424 6.58252 8.16952 -0.047318 0.0281745 -0.440284
ITEM: TIMESTEP
13
ITEM: NUMBER OF ATOMS
37
ITEM: BOX BOUNDS xy xz yz pp pp pp
0.0000000000000000e+00 1.2825872982787001e+01 4.2752909942623303e+00
0.0000000000000000e+00 7.4050212192040297e+00 0.0000000000000000e+00
0.0000000000000000e+00 2.3271736528575300e+01 0.0000000000000000e+00
ITEM: ATOMS id type element x y z fx fy fz
1 2 Pt 2.85017 1.64554 1.16359 0 0 0
2 2 Pt 4.27529 4.11393 1.16359 0 0 0
3 2 Pt 5.70037 6.58225 1.16359 0 0 0
10 2 Pt 4.28239 2.46854 3.52101 0 0 0
11 2 Pt 5.70012 4.93893 3.50077 0 0 0
12 2 Pt 2.85179 0.00355441 3.49774 0 0 0
16 2 Pt 1.42987 2.46506 3.49867 0 0 0
17 2 Pt 2.85786 4.93915 3.49937 0 0 0
18 2 Pt 0.00500209 0.00022215 3.53451 0 0 0
19 2 Pt 1.44048 0.826913 5.8135 -0.0340073 0.00343084 -0.151058
20 2 Pt 2.87194 3.28954 5.82199 -0.0534241 0.0726141 0.0523452
21 2 Pt 4.28157 5.7416 5.82558 -0.0159574 -0.0465694 0.00511294
22 2 Pt 4.28383 0.832759 5.81921 0.000449212 -0.00552451 -0.127124
23 2 Pt 5.68806 3.29249 5.8417 -0.0417909 0.0380618 -0.0290062
24 2 Pt 7.12862 5.7592 5.78003 0.0154955 -0.0130403 -0.0881207
28 2 Pt 2.81775 1.60293 8.14389 0.282671 0.235525 -0.24596
29 2 Pt 4.24536 4.18069 8.27165 -0.288554 -0.42194 -0.140638
30 2 Pt 5.72819 6.58298 8.12327 -0.069127 -0.0901622 -0.253572
37 1 O 2.46808 3.85571 10.3065 -0.405333 0.246432 -3.04421
4 2 Pt 5.70042 1.64554 1.16359 0 0 0
5 2 Pt 7.12554 4.11393 1.16359 0 0 0
6 2 Pt 8.55062 6.58225 1.16359 0 0 0
7 2 Pt 8.55058 1.64554 1.16359 0 0 0