LAMMPS (29 Oct 2020)
OMP_NUM_THREADS environment is not set. Defaulting to 1 thread. (src/comm.cpp:94)
  using 1 OpenMP thread(s) per MPI task
Reading data file ...
  triclinic box = (0.0000000 0.0000000 0.0000000) to (5.7003900 4.9366825 23.271700) with tilt (2.8501950 0.0000000 0.0000000)
  1 by 1 by 1 MPI processor grid
  reading atoms ...
  16 atoms
  read_data CPU = 0.001 seconds
Changing box ...
  triclinic box = (0.0000000 0.0000000 0.0000000) to (5.7003900 4.9366825 23.271700) with tilt (2.8501950 0.0000000 0.0000000)
NEQUIP is using device cpu
NequIP Coeff: type 1 is element Pt
Loading model from /mnt/scratch2/users/40247882/ZnCuOx/PtWater/nequip/nequip-gpu/aqueous/s22w/init/t0/m2/deployed_model.pth
Freezing TorchScript model...
16 atoms in group mobile
WARNING: Using 'neigh_modify every 1 delay 0 check yes' setting during minimization (src/min.cpp:187)
Neighbor list info ...
  update every 1 steps, delay 0 steps, check yes
  max neighbors/atom: 2000, page size: 100000
  master list distance cutoff = 6
  ghost atom cutoff = 6
  binsize = 3, bins = 3 2 8
  1 neighbor lists, perpetual/occasional/extra = 1 0 0
  (1) pair nequip, perpetual
      attributes: full, newton off
      pair build: full/bin/atomonly
      stencil: full/bin/3d
      bin: standard
Setting up fire style minimization ...
  Unit style    : metal
  Current step  : 0
Per MPI rank memory allocation (min/avg/max) = 4.329 | 4.329 | 4.329 Mbytes
Step PotEng KinEng TotEng Temp Press Volume Fmax Fnorm 
       0   -90.226929            0   -90.226929            0            0    654.88928    2.2010405    4.5816391 
Loop time of 2.415e-06 on 1 procs for 0 steps with 16 atoms

165.6% CPU use with 1 MPI tasks x 1 OpenMP threads

Minimization stats:
  Stopping criterion = max iterations
  Energy initial, next-to-last, final = 
     -90.2269287109375 5.45178673640855e-316  -90.2269287109375
  Force two-norm initial, final = 4.5816391 4.5816391
  Force max component initial, final = 2.2010405 2.2010405
  Final line search alpha, max atom move = 0.0000000 0.0000000
  Iterations, force evaluations = 0 0

MPI task timing breakdown:
Section |  min time  |  avg time  |  max time  |%varavg| %total
---------------------------------------------------------------
Pair    | 0          | 0          | 0          |   0.0 |  0.00
Neigh   | 0          | 0          | 0          |   0.0 |  0.00
Comm    | 0          | 0          | 0          |   0.0 |  0.00
Output  | 0          | 0          | 0          |   0.0 |  0.00
Modify  | 0          | 0          | 0          |   0.0 |  0.00
Other   |            | 2.415e-06  |            |       |100.00

Nlocal:        16.0000 ave          16 max          16 min
Histogram: 1 0 0 0 0 0 0 0 0 0
Nghost:        314.000 ave         314 max         314 min
Histogram: 1 0 0 0 0 0 0 0 0 0
Neighs:        0.00000 ave           0 max           0 min
Histogram: 1 0 0 0 0 0 0 0 0 0
FullNghs:      682.000 ave         682 max         682 min
Histogram: 1 0 0 0 0 0 0 0 0 0

Total # of neighbors = 682
Ave neighs/atom = 42.625000
Neighbor list builds = 0
Dangerous builds = 0
Total wall time: 0:00:01
