ITEM: TIMESTEP
0
ITEM: NUMBER OF ATOMS
16
ITEM: BOX BOUNDS xy xz yz pp pp pp
0.0000000000000000e+00 8.5505849999999999e+00 2.8501949999999998e+00
0.0000000000000000e+00 4.9366825499999996e+00 0.0000000000000000e+00
0.0000000000000000e+00 2.3271699999999999e+01 0.0000000000000000e+00
ITEM: ATOMS id type element x y z fx fy fz vx vy vz
1 1 Pt 2.91606 0.765495 1.05964 -0.296805 -0.0301017 0.229583 0 0 0
2 1 Pt 4.38205 3.28832 1.13336 -0.537123 -0.24672 0.390347 0 0 0
3 1 Pt 5.58953 0.689642 1.21361 0.593962 -0.0925973 -0.17206 0 0 0
4 1 Pt 7.15138 3.14133 0.993802 0.208738 0.495062 0.301805 0 0 0
5 1 Pt 3.97408 1.74614 3.46609 0.860787 0.662304 0.314938 0 0 0
6 1 Pt 5.57603 4.28229 3.42381 -0.487261 -0.55573 0.39477 0 0 0
7 1 Pt 1.22441 1.85361 3.26677 0.0237281 -0.382506 1.36494 0 0 0
8 1 Pt 2.72461 4.27879 3.62802 -0.136547 -0.359628 -0.670403 0 0 0
9 1 Pt 0.996186 0.340715 5.80101 -0.0166227 -0.0623895 0.125194 0 0 0
10 1 Pt 2.41186 2.67404 5.88315 0.122451 0.575062 -0.778424 0 0 0
11 1 Pt 3.93596 0.183078 5.76174 -0.475026 0.547596 0.691277 0 0 0
12 1 Pt 5.18192 2.85119 5.86671 0.173093 -0.309189 -0.809091 0 0 0
13 1 Pt 3.47182 3.71316 8.41969 -0.433448 0.720719 -1.08179 0 0 0
14 1 Pt 2.00918 1.3055 8.08787 0.290868 -0.645008 0.580536 0 0 0
15 1 Pt 6.28505 3.5846 8.28674 0.646841 1.88417 -0.559102 0 0 0
16 1 Pt 4.87406 1.50437 8.1881 -0.537637 -2.20104 -0.322521 0 0 0
