ITEM: TIMESTEP
0
ITEM: NUMBER OF ATOMS
336
ITEM: BOX BOUNDS xy xz yz pp pp pp
-5.9807006299141401e+00 1.1961401259828300e+01 -5.9807006299141401e+00
0.0000000000000000e+00 1.0358877355870501e+01 0.0000000000000000e+00
0.0000000000000000e+00 4.8578864614561297e+01 0.0000000000000000e+00
ITEM: ATOMS id type element x y z fx fy fz vx vy vz
1 2 O -2.25971 4.7576 3.52904 0 0 0 0 0 0
2 2 O -2.25971 4.7576 18.1398 0.0777755 -0.0449038 -0.040902 -5.26319 -7.5374 -8.30812
3 2 O 3.72099 1.30464 8.39931 0.0777391 -0.0448827 -0.0408635 -8.50992 6.64271 -9.18421
4 2 O 3.72099 1.30464 23.0101 0.0785129 -0.0453295 -0.0140896 -1.61423 2.55932 3.04971
5 2 O 0.730642 3.03112 13.2696 0.0777756 -0.0449038 -0.040902 3.47949 -5.7478 -2.01407
6 2 O 0.730642 3.03112 27.8804 -0.527178 0.304366 -0.391771 -9.59003 5.10431 9.28675
7 2 O -0.872186 2.35434 3.52904 0 0 0 0 0 0
8 2 O -0.872186 2.35434 18.1398 3.692e-08 0.0898075 -0.040902 -3.61246 -5.68664 -2.22877
9 2 O 2.11816 4.08082 8.39931 -2.6125e-09 0.0897654 -0.0408635 -8.64928 -6.40604 -5.91715
10 2 O 2.11816 4.08082 23.0101 -1.89859e-09 0.0906589 -0.0140896 -9.7018 -5.6873 7.55249
11 2 O 2.11816 0.627863 13.2696 -3.44873e-09 0.0898075 -0.040902 9.95819 -9.09765 -0.378164
12 2 O 2.11816 0.627863 27.8804 -4.77866e-09 -0.608733 -0.391771 -5.1404 -0.206324 2.46187
13 2 O 0.515337 4.7576 3.52904 0 0 0 0 0 0
14 2 O 0.515337 4.7576 18.1398 -0.0777756 -0.0449038 -0.040902 8.26436 -0.765643 3.23798
15 2 O 0.515337 1.30464 8.39931 -0.0777391 -0.0448827 -0.0408635 -0.955119 0.234877 10.0436
16 2 O 0.515337 1.30464 23.0101 -0.0785129 -0.0453295 -0.0140896 -8.47183 -3.85397 -6.52941
17 2 O 3.50569 3.03112 13.2696 -0.0777755 -0.0449038 -0.040902 3.72627 7.77435 -2.00429
18 2 O 3.50569 3.03112 27.8804 0.527178 0.304366 -0.391771 7.90385 4.82622 -5.83207
19 2 O -2.47501 4.88191 11.0818 -0.0777756 0.0449037 0.0409021 -6.77503 -4.16509 -10.1853
20 2 O -2.47501 4.88191 25.6926 -0.111308 0.0642635 0.141211 3.11664 2.3336 7.68027
21 2 O 3.50569 1.42895 1.34122 0 0 0 0 0 0
22 2 O 3.50569 1.42895 15.952 -0.0777755 0.0449037 0.0409021 -3.13521 -0.902355 -7.11801
23 2 O 0.515337 3.15543 6.21149 0 0 0 0 0 0
24 2 O 0.515337 3.15543 20.8223 -0.0775789 0.0447901 0.0427167 -8.41626 6.80175 -1.33791
25 2 O 0.730642 4.88191 11.0818 0.0777756 0.0449037 0.0409021 1.77028 -4.0772 -1.9531
26 2 O 0.730642 4.88191 25.6926 0.111308 0.0642634 0.141211 7.83522 5.41275 10.082
27 2 O 0.730642 1.42895 1.34122 0 0 0 0 0 0
28 2 O 0.730642 1.42895 15.952 0.0777756 0.0449037 0.0409021 2.40972 -1.30085 -10.4642
29 2 O 3.72099 3.15543 6.21149 0 0 0 0 0 0
30 2 O 3.72099 3.15543 20.8223 0.0775788 0.0447901 0.0427167 -7.01398 8.84049 -4.5884
31 2 O -0.872186 2.10573 11.0818 3.85128e-08 -0.0898076 0.0409021 -5.29872 3.90835 -8.6024
32 2 O -0.872186 2.10573 25.6926 3.30132e-08 -0.128527 0.141211 -2.08159 -3.90827 4.22844
33 2 O 2.11816 3.83221 1.34122 0 0 0 0 0 0
34 2 O 2.11816 3.83221 15.952 -3.67569e-09 -0.0898076 0.0409021 3.46084 -4.43104 -10.2338
35 2 O 2.11816 0.37925 6.21149 0 0 0 0 0 0
36 2 O 2.11816 0.37925 20.8223 6.34539e-10 -0.0895804 0.0427168 7.03856 4.40117 6.16758
37 2 O 5.10851 0.503557 6.23136 0 0 0 0 0 0
38 2 O 5.10851 0.503557 20.8422 4.12651e-08 -5.84122e-08 0.105796 -2.34124 -3.05439 1.66449
39 3 Zn 5.10851 0.503557 4.22754 0 0 0 0 0 0
40 3 Zn 5.10851 0.503557 18.8383 4.3176e-08 -5.20818e-08 -0.000233491 -1.45615 1.30395 2.31031
41 2 O 2.11816 2.23004 11.1016 -7.36647e-09 7.98035e-09 0.103729 7.84654 6.85811 1.60099
42 2 O 2.11816 2.23004 25.7124 -4.36314e-09 7.07814e-09 0.141868 -2.62224 -4.20405 6.51313
43 3 Zn 2.11816 2.23004 9.0978 -1.29301e-08 2.22134e-08 -0.000437953 0.33268 3.24206 1.03871
44 3 Zn 2.11816 2.23004 23.7086 -1.33267e-08 2.33635e-08 -0.124386 -4.16098 -1.2208 -4.75146
45 2 O -0.872186 3.95652 1.36109 0 0 0 0 0 0
46 2 O -0.872186 3.95652 15.9719 3.8166e-08 1.40927e-08 0.103729 -2.13498 1.10327 -0.436237
47 3 Zn -0.872186 3.95652 13.9681 1.20318e-08 1.23688e-08 -0.000265679 2.41653 1.57449 2.53357
48 3 Zn -0.872186 3.95652 28.5789 5.58973e-09 1.20458e-08 -1.89352 -1.64731 -3.98966 -3.80599
49 2 O -0.872186 3.95652 8.37944 4.20135e-08 8.26477e-09 -0.104164 -3.62799 6.05889 -0.509606
50 2 O -0.872186 3.95652 22.9902 4.14693e-08 8.496e-09 -0.0766526 10.1151 5.3991 -9.4997
51 3 Zn -0.872186 3.95652 10.3833 4.40175e-08 4.26193e-08 0.00023342 2.45885 -3.45879 1.354
52 3 Zn -0.872186 3.95652 24.9941 4.74707e-08 4.38809e-08 -0.13998 0.534764 5.14868 0.0570504
53 2 O 5.10851 0.503557 13.2497 3.73664e-08 -7.01691e-08 -0.103729 5.28964 10.2561 -9.70325
54 2 O 5.10851 0.503557 27.8605 2.03685e-08 -3.75684e-08 -1.4041 4.61855 0.141385 -8.38395
55 3 Zn 5.10851 0.503557 0.642729 0 0 0 0 0 0
56 3 Zn 5.10851 0.503557 15.2535 1.12466e-08 -6.29877e-08 0.000265766 3.89802 -2.59819 5.07481
57 2 O 2.11816 2.23004 3.50917 0 0 0 0 0 0
58 2 O 2.11816 2.23004 18.12 -6.39175e-09 5.93123e-08 -0.103726 -4.93275 6.14303 7.69721
59 3 Zn 2.11816 2.23004 5.51299 0 0 0 0 0 0
60 3 Zn 2.11816 2.23004 20.1238 -1.21225e-08 5.2777e-08 0.00108181 4.64324 3.08919 -4.2096
61 3 Zn -0.872186 3.95652 4.87027 0 0 0 0 0 0
62 3 Zn -0.872186 3.95652 19.4811 4.64152e-08 4.1659e-08 3.23235e-05 1.99609 4.60432 -3.41381
63 3 Zn 5.10851 0.503557 9.74053 4.56469e-08 -2.24389e-08 -4.3725e-06 -2.37902 -0.428572 1.9921
64 3 Zn 5.10851 0.503557 24.3513 4.65997e-08 -2.36109e-08 -0.265003 1.77574 -3.16375 -1.80182
65 3 Zn 2.11816 2.23004 0 0 0 0 0 0 0
66 3 Zn 2.11816 2.23004 14.6108 -3.99058e-08 4.72182e-08 3.65861e-08 -2.10695 4.63487 1.25348
67 1 Cr -2.36736 4.81976 7.3054 0 0 0 0 0 0
68 1 Cr -2.36736 4.81976 21.9162 -0.00240373 0.00138783 0.00300123 -0.107273 -2.93964 4.39892
69 1 Cr 3.61334 1.3668 12.1757 -1.27126e-07 1.17238e-07 -1.06407e-07 -0.138136 2.16916 -3.4865
70 1 Cr 3.61334 1.3668 26.7865 -0.0958883 0.0553612 1.60626 -4.29448 0.587402 -1.28835
71 1 Cr 0.622989 3.09328 2.43513 0 0 0 0 0 0
72 1 Cr 0.622989 3.09328 17.0459 5.94859e-08 9.66174e-08 -6.13384e-08 3.40051 5.25496 1.5922
73 1 Cr -0.872186 2.23004 7.3054 0 0 0 0 0 0
74 1 Cr -0.872186 2.23004 21.9162 9.39825e-08 -0.00277539 0.00300121 2.21008 -3.9635 0.897809
75 1 Cr 2.11816 3.95652 12.1757 -8.50007e-08 4.28532e-08 -1.32625e-07 -1.02948 2.53258 4.96738
76 1 Cr 2.11816 3.95652 26.7865 -6.79728e-08 -0.110722 1.60626 -2.83445 1.43887 3.26691
77 1 Cr 2.11816 0.503557 2.43513 0 0 0 0 0 0
78 1 Cr 2.11816 0.503557 17.0459 -4.84126e-08 -1.74723e-07 -3.20755e-08 -4.05156 -2.30256 2.53395
79 1 Cr 0.622989 4.81976 7.3054 0 0 0 0 0 0
80 1 Cr 0.622989 4.81976 21.9162 0.00240367 0.00138781 0.00300122 -3.49594 0.246264 3.94221
81 1 Cr 0.622989 1.3668 12.1757 4.6217e-08 1.02999e-07 -1.13443e-07 -5.0887 3.69695 -4.55552
82 1 Cr 0.622989 1.3668 26.7865 0.0958883 0.0553612 1.60626 1.57455 0.558805 -4.65477
83 1 Cr 3.61334 3.09328 2.43513 0 0 0 0 0 0
84 1 Cr 3.61334 3.09328 17.0459 -1.38345e-07 8.05506e-08 -6.66511e-08 -2.9038 -0.207541 1.31724
169 2 O -5.25006 9.93704 3.52904 0 0 0 0 0 0
170 2 O -5.25006 9.93704 18.1398 0.0777756 -0.0449038 -0.040902 -0.297033 1.6281 6.7877
171 2 O 0.730642 6.48408 8.39931 0.0777391 -0.0448827 -0.0408635 -1.04902 -4.03597 -1.58137
172 2 O 0.730642 6.48408 23.0101 0.0785129 -0.0453295 -0.0140897 2.10186 7.72024 -9.09283
173 2 O -2.25971 8.21056 13.2696 0.0777755 -0.0449038 -0.040902 2.2625 0.621679 5.68732
174 2 O -2.25971 8.21056 27.8804 -0.527178 0.304366 -0.391771 -7.40073 -6.91595 6.87256
175 2 O -3.86254 7.53378 3.52904 0 0 0 0 0 0
176 2 O -3.86254 7.53378 18.1398 1.93845e-09 0.0898075 -0.040902 -5.76943 4.00913 6.37074
177 2 O -0.872186 9.26026 8.39931 3.86676e-08 0.0897654 -0.0408635 0.0788499 2.62045 2.14735
178 2 O -0.872186 9.26026 23.0101 3.80384e-08 0.0906589 -0.0140896 9.69336 9.6134 -3.95764
179 2 O -0.872186 5.8073 13.2696 3.62391e-08 0.0898075 -0.040902 -1.57372 -9.0915 -1.85905
180 2 O -0.872186 5.8073 27.8804 2.02685e-08 -0.608733 -0.391771 -6.30875 5.17798 9.32273
181 2 O -2.47501 9.93704 3.52904 0 0 0 0 0 0
182 2 O -2.47501 9.93704 18.1398 -0.0777756 -0.0449038 -0.040902 -7.20039 2.63223 -9.65064
183 2 O -2.47501 6.48408 8.39931 -0.0777392 -0.0448828 -0.0408635 7.43896 -2.23021 3.58615
184 2 O -2.47501 6.48408 23.0101 -0.078513 -0.0453295 -0.0140897 -4.08087 -8.94552 -3.65296
185 2 O 0.515337 8.21056 13.2696 -0.0777756 -0.0449038 -0.040902 -1.1336 1.37157 -2.75529
186 2 O 0.515337 8.21056 27.8804 0.527178 0.304366 -0.391771 -2.24323 7.41841 -3.60541
187 2 O -5.46536 10.0613 11.0818 -0.0777756 0.0449037 0.0409021 0.55977 6.23857 -2.42465
188 2 O -5.46536 10.0613 25.6926 -0.111308 0.0642634 0.141211 -6.04048 2.21774 -9.01357
189 2 O 0.515337 6.60839 1.34122 0 0 0 0 0 0
190 2 O 0.515337 6.60839 15.952 -0.0777756 0.0449037 0.0409021 -9.99524 -6.03094 2.88119
191 2 O -2.47501 8.33487 6.21149 0 0 0 0 0 0
192 2 O -2.47501 8.33487 20.8223 -0.0775789 0.0447902 0.0427167 -0.270622 4.83423 2.7839
193 2 O -2.25971 10.0613 11.0818 0.0777755 0.0449037 0.0409021 5.86353 2.53771 -3.40593
194 2 O -2.25971 10.0613 25.6926 0.111308 0.0642634 0.141211 -4.35055 -8.79846 -8.1604
195 2 O -2.25971 6.60839 1.34122 0 0 0 0 0 0
196 2 O -2.25971 6.60839 15.952 0.0777755 0.0449037 0.0409021 8.44159 -1.94403 7.88623
197 2 O 0.730642 8.33487 6.21149 0 0 0 0 0 0
198 2 O 0.730642 8.33487 20.8223 0.0775789 0.0447901 0.0427167 1.24725 -1.92116 -6.38409
199 2 O -3.86254 7.28517 11.0818 2.0176e-09 -0.0898075 0.0409021 -9.21006 -9.07836 9.14152
200 2 O -3.86254 7.28517 25.6926 2.7686e-09 -0.128527 0.141211 2.97015 -4.39075 -4.6071
201 2 O -0.872186 9.01165 1.34122 0 0 0 0 0 0
202 2 O -0.872186 9.01165 15.952 3.6183e-08 -0.0898074 0.0409021 3.94575 3.23 6.16122
203 2 O -0.872186 5.55869 6.21149 0 0 0 0 0 0
204 2 O -0.872186 5.55869 20.8223 3.869e-08 -0.0895805 0.0427168 7.08084 1.59278 0.677915
205 2 O 2.11816 5.683 6.23136 0 0 0 0 0 0
206 2 O 2.11816 5.683 20.8422 -6.94648e-09 1.01027e-08 0.105796 9.48521 -5.17916 7.0462
207 3 Zn 2.11816 5.683 4.22754 0 0 0 0 0 0
208 3 Zn 2.11816 5.683 18.8383 -1.26868e-08 1.3445e-08 -0.00023351 1.5773 4.14947 2.5367
209 2 O -0.872186 7.40947 11.1016 4.20481e-08 2.61118e-08 0.103729 -1.68849 -7.4075 -7.61168
210 2 O -0.872186 7.40947 25.7124 3.31122e-08 1.80613e-08 0.141868 7.84913 8.44901 5.00396
211 3 Zn -0.872186 7.40947 9.0978 4.30169e-08 2.99518e-08 -0.000437944 3.43491 -0.498632 -2.47778
212 3 Zn -0.872186 7.40947 23.7086 4.34447e-08 2.95003e-08 -0.124386 2.42823 1.00699 4.41714
213 2 O -3.86254 9.13595 1.36109 0 0 0 0 0 0
214 2 O -3.86254 9.13595 15.9719 -2.53971e-09 2.44366e-08 0.103729 8.90296 8.94838 3.99055
215 3 Zn -3.86254 9.13595 13.9681 -1.20747e-08 -8.30833e-09 -0.000265657 -3.34745 0.267981 -0.601484
216 3 Zn -3.86254 9.13595 28.5789 -6.4069e-09 -1.28283e-09 -1.89352 0.475556 -3.78931 0.116751
217 2 O -3.86254 9.13595 8.37944 -2.29582e-09 1.45631e-08 -0.104164 -1.90231 8.4071 -6.77773
218 2 O -3.86254 9.13595 22.9902 -1.98736e-09 1.43116e-08 -0.0766526 6.08397 -6.89154 -2.59833
219 3 Zn -3.86254 9.13595 10.3833 -1.20175e-08 1.35258e-09 0.000233448 -4.20096 1.52883 3.14522
220 3 Zn -3.86254 9.13595 24.9941 -1.48154e-08 9.85112e-10 -0.13998 1.26439 -2.16292 2.10826
221 2 O 2.11816 5.683 13.2497 -6.74815e-09 1.60524e-08 -0.103729 5.39223 -7.35559 4.48513
222 2 O 2.11816 5.683 27.8605 -9.58958e-09 5.70998e-09 -1.4041 -4.18508 2.39253 -9.23276
223 3 Zn 2.11816 5.683 0.642729 0 0 0 0 0 0
224 3 Zn 2.11816 5.683 15.2535 -1.23391e-08 4.55385e-08 0.000265754 -4.08076 -2.54296 -0.989024
225 2 O -0.872186 7.40947 3.50917 0 0 0 0 0 0
226 2 O -0.872186 7.40947 18.12 4.20039e-08 -3.2091e-10 -0.103726 -5.27821 -8.17036 -7.11962
227 3 Zn -0.872186 7.40947 5.51299 0 0 0 0 0 0
228 3 Zn -0.872186 7.40947 20.1238 4.29449e-08 3.6761e-08 0.00108179 -2.69378 3.51714 4.81274
229 3 Zn -3.86254 9.13595 4.87027 0 0 0 0 0 0
230 3 Zn -3.86254 9.13595 19.4811 -9.42163e-09 2.6658e-08 3.23108e-05 0.0581403 -1.8613 -4.73985
231 3 Zn 2.11816 5.683 9.74053 -4.10024e-08 1.49812e-08 -4.39229e-06 -1.46703 -5.11126 -2.92283
232 3 Zn 2.11816 5.683 24.3513 -4.19722e-08 1.3679e-08 -0.265003 -3.22933 2.74883 -4.67334
233 3 Zn -0.872186 7.40947 0 0 0 0 0 0 0
234 3 Zn -0.872186 7.40947 14.6108 4.63302e-08 1.70473e-08 2.64817e-08 -1.89875 -4.91945 2.82785
235 1 Cr -5.35771 9.99919 7.3054 0 0 0 0 0 0
236 1 Cr -5.35771 9.99919 21.9162 -0.0024036 0.00138777 0.00300122 2.86255 -3.34291 1.383
237 1 Cr 0.622989 6.54624 12.1757 4.36221e-08 3.60715e-08 -1.07299e-07 5.31715 -2.53611 0.185228
238 1 Cr 0.622989 6.54624 26.7865 -0.0958882 0.0553611 1.60626 0.61734 -0.257908 4.53791
239 1 Cr -2.36736 8.27271 2.43513 0 0 0 0 0 0
240 1 Cr -2.36736 8.27271 17.0459 -9.80215e-08 7.58644e-08 -3.22937e-08 1.1807 4.54726 3.79646
241 1 Cr -3.86254 7.40947 7.3054 0 0 0 0 0 0
242 1 Cr -3.86254 7.40947 21.9162 -1.04275e-08 -0.00277545 0.00300121 -3.13857 0.172465 -2.51522
243 1 Cr -0.872186 9.13595 12.1757 9.22478e-08 4.27323e-08 -1.27845e-07 0.208738 0.227899 -2.0664
244 1 Cr -0.872186 9.13595 26.7865 7.28504e-08 -0.110722 1.60626 0.453499 4.84819 -2.1112
245 1 Cr -0.872186 5.683 2.43513 0 0 0 0 0 0
246 1 Cr -0.872186 5.683 17.0459 9.25195e-08 4.84414e-08 -7.02931e-08 5.54498 -3.01098 4.34411
247 1 Cr -2.36736 9.99919 7.3054 0 0 0 0 0 0
248 1 Cr -2.36736 9.99919 21.9162 0.00240354 0.00138775 0.0030012 2.57122 1.01169 -5.83531
249 1 Cr -2.36736 6.54624 12.1757 -1.09411e-07 1.81801e-08 -1.18994e-07 3.71307 -2.98353 0.087658
250 1 Cr -2.36736 6.54624 26.7865 0.0958882 0.0553611 1.60626 2.05792 -0.494043 5.20146
251 1 Cr 0.622989 8.27271 2.43513 0 0 0 0 0 0
252 1 Cr 0.622989 8.27271 17.0459 3.16687e-08 5.73336e-08 -4.40343e-08 4.80131 -0.0161552 5.17555
85 2 O 3.72099 4.7576 3.52904 0 0 0 0 0 0
86 2 O 3.72099 4.7576 18.1398 0.0777755 -0.0449038 -0.040902 -6.37818 -7.64043 1.85398
87 2 O 9.70169 1.30464 8.39931 0.0777391 -0.0448827 -0.0408635 -10.5802 4.9159 -9.5747
88 2 O 9.70169 1.30464 23.0101 0.0785129 -0.0453295 -0.0140896 3.65984 3.5814 -5.51309
89 2 O 6.71134 3.03112 13.2696 0.0777756 -0.0449038 -0.040902 3.23547 6.06537 3.43389
90 2 O 6.71134 3.03112 27.8804 -0.527178 0.304366 -0.391771 -3.01324 -7.41932 3.58439
91 2 O 5.10851 2.35434 3.52904 0 0 0 0 0 0
92 2 O 5.10851 2.35434 18.1398 3.77552e-08 0.0898075 -0.040902 -2.74878 9.60543 9.02392
93 2 O 8.09887 4.08082 8.39931 4.57739e-10 0.0897654 -0.0408635 -0.866914 -7.23555 7.4149
94 2 O 8.09887 4.08082 23.0101 8.02255e-10 0.0906589 -0.0140896 5.81281 10.3874 -6.80888
95 2 O 8.09887 0.627863 13.2696 -3.8027e-09 0.0898075 -0.040902 7.2959 6.66635 10.3794
96 2 O 8.09887 0.627863 27.8804 -5.26773e-09 -0.608733 -0.391771 -9.06643 -8.43298 6.83807
97 2 O 6.49604 4.7576 3.52904 0 0 0 0 0 0
98 2 O 6.49604 4.7576 18.1398 -0.0777756 -0.0449038 -0.040902 -5.61896 -6.21939 4.33903
99 2 O 6.49604 1.30464 8.39931 -0.0777391 -0.0448827 -0.0408635 -4.39058 -9.93917 0.0466702
100 2 O 6.49604 1.30464 23.0101 -0.0785129 -0.0453295 -0.0140896 0.164033 7.31965 -5.65174
101 2 O 9.48639 3.03112 13.2696 -0.0777755 -0.0449038 -0.040902 2.29354 -2.42773 -0.416169
102 2 O 9.48639 3.03112 27.8804 0.527178 0.304366 -0.391771 6.64291 6.93951 5.76914
103 2 O 3.50569 4.88191 11.0818 -0.0777755 0.0449037 0.0409021 3.7095 -1.19766 3.19239
104 2 O 3.50569 4.88191 25.6926 -0.111308 0.0642634 0.141211 9.18008 7.79898 -7.80221
105 2 O 9.48639 1.42895 1.34122 0 0 0 0 0 0
106 2 O 9.48639 1.42895 15.952 -0.0777755 0.0449037 0.0409021 -2.28837 4.27035 -10.0375
107 2 O 6.49604 3.15543 6.21149 0 0 0 0 0 0
108 2 O 6.49604 3.15543 20.8223 -0.0775789 0.0447901 0.0427167 -4.35262 -1.48366 1.79485
109 2 O 6.71134 4.88191 11.0818 0.0777756 0.0449037 0.0409021 2.83792 -2.42092 9.01806
110 2 O 6.71134 4.88191 25.6926 0.111308 0.0642634 0.141211 5.50393 2.45487 10.2748
111 2 O 6.71134 1.42895 1.34122 0 0 0 0 0 0
112 2 O 6.71134 1.42895 15.952 0.0777756 0.0449037 0.0409021 1.04082 -8.9669 -6.21408
113 2 O 9.70169 3.15543 6.21149 0 0 0 0 0 0
114 2 O 9.70169 3.15543 20.8223 0.0775788 0.0447901 0.0427167 -4.98054 0.443459 -9.78732
115 2 O 5.10851 2.10573 11.0818 3.61788e-08 -0.0898076 0.0409021 -2.33515 -5.51955 -5.92451
116 2 O 5.10851 2.10573 25.6926 3.03684e-08 -0.128527 0.141211 -7.46753 3.58186 2.22653
117 2 O 8.09887 3.83221 1.34122 0 0 0 0 0 0
118 2 O 8.09887 3.83221 15.952 -3.62263e-09 -0.0898076 0.0409021 -10.2307 2.05864 3.11305
119 2 O 8.09887 0.37925 6.21149 0 0 0 0 0 0
120 2 O 8.09887 0.37925 20.8223 -3.30276e-09 -0.0895804 0.0427168 8.4866 -0.959776 -6.88401
121 2 O 11.0892 0.503557 6.23136 0 0 0 0 0 0
122 2 O 11.0892 0.503557 20.8422 3.57364e-08 -6.45621e-08 0.105796 4.02331 5.70824 2.89754
123 3 Zn 11.0892 0.503557 4.22754 0 0 0 0 0 0
124 3 Zn 11.0892 0.503557 18.8383 1.05327e-08 -6.74512e-08 -0.000233506 0.847865 4.35805 -0.634988
125 2 O 8.09887 2.23004 11.1016 -6.39949e-09 6.68986e-09 0.103729 -3.95832 -5.75336 9.5555
126 2 O 8.09887 2.23004 25.7124 -3.9305e-09 4.27578e-09 0.141868 -6.25498 6.5135 1.59287
127 3 Zn 8.09887 2.23004 9.0978 -1.22554e-08 2.3028e-08 -0.000437953 3.76638 -3.88705 -2.43231
128 3 Zn 8.09887 2.23004 23.7086 -1.26176e-08 2.42393e-08 -0.124386 -1.49428 4.03371 -1.85352
129 2 O 5.10851 3.95652 1.36109 0 0 0 0 0 0
130 2 O 5.10851 3.95652 15.9719 3.73726e-08 1.34525e-08 0.103729 0.504477 0.271295 -7.42228
131 3 Zn 5.10851 3.95652 13.9681 1.20331e-08 1.21725e-08 -0.000265679 0.622015 -2.51605 4.90619
132 3 Zn 5.10851 3.95652 28.5789 3.12133e-09 1.16074e-08 -1.89352 2.21088 2.04443 0.86828
133 2 O 5.10851 3.95652 8.37944 3.73282e-08 1.47142e-08 -0.104164 -6.97036 7.57096 0.139069
134 2 O 5.10851 3.95652 22.9902 3.70021e-08 1.50938e-08 -0.0766525 0.233753 3.95242 -2.43779
135 3 Zn 5.10851 3.95652 10.3833 1.19343e-08 5.81756e-08 0.000233436 1.80098 -4.62808 0.000827232
136 3 Zn 5.10851 3.95652 24.9941 1.43115e-08 5.85089e-08 -0.13998 2.21942 0.260519 -1.44536
137 2 O 11.0892 0.503557 13.2497 3.64227e-08 -7.01086e-08 -0.103729 -4.68697 3.0097 -2.99892
138 2 O 11.0892 0.503557 27.8605 1.91469e-08 -3.81148e-08 -1.4041 -4.78857 -4.863 -9.45308
139 3 Zn 11.0892 0.503557 0.642729 0 0 0 0 0 0
140 3 Zn 11.0892 0.503557 15.2535 1.1271e-08 -6.35925e-08 0.000265765 -1.44432 2.83693 1.88907
141 2 O 8.09887 2.23004 3.50917 0 0 0 0 0 0
142 2 O 8.09887 2.23004 18.12 -7.43883e-09 5.7987e-08 -0.103726 9.29602 4.80271 -2.24102
143 3 Zn 8.09887 2.23004 5.51299 0 0 0 0 0 0
144 3 Zn 8.09887 2.23004 20.1238 -1.32283e-08 5.36537e-08 0.00108181 4.14191 -3.85525 2.59982
145 3 Zn 5.10851 3.95652 4.87027 0 0 0 0 0 0
146 3 Zn 5.10851 3.95652 19.4811 4.55753e-08 3.98002e-08 3.23242e-05 -0.472886 0.68027 4.72589
147 3 Zn 11.0892 0.503557 9.74053 4.47176e-08 -2.09096e-08 -4.37301e-06 3.12433 1.16321 3.63779
148 3 Zn 11.0892 0.503557 24.3513 4.58818e-08 -2.21139e-08 -0.265003 -3.93001 -1.69056 -0.243679
149 3 Zn 8.09887 2.23004 0 0 0 0 0 0 0
150 3 Zn 8.09887 2.23004 14.6108 -4.01072e-08 4.91695e-08 3.27449e-08 -3.83054 -1.24706 0.200795
151 1 Cr 3.61334 4.81976 7.3054 0 0 0 0 0 0
152 1 Cr 3.61334 4.81976 21.9162 -0.00240375 0.00138782 0.00300123 5.28272 0.903224 -1.30411
153 1 Cr 9.59404 1.3668 12.1757 -1.27589e-07 1.18697e-07 -1.0679e-07 -3.74037 1.20025 -2.96649
154 1 Cr 9.59404 1.3668 26.7865 -0.0958883 0.0553612 1.60626 5.32513 3.67444 1.13369
155 1 Cr 6.60369 3.09328 2.43513 0 0 0 0 0 0
156 1 Cr 6.60369 3.09328 17.0459 5.71496e-08 9.72119e-08 -6.00535e-08 -5.05722 -2.64365 -3.0098
157 1 Cr 5.10851 2.23004 7.3054 0 0 0 0 0 0
158 1 Cr 5.10851 2.23004 21.9162 9.23704e-08 -0.00277539 0.00300121 -5.11091 3.058 0.642205
159 1 Cr 8.09887 3.95652 12.1757 -4.90044e-08 5.34167e-08 -1.50448e-07 -1.64294 5.55166 -5.54488
160 1 Cr 8.09887 3.95652 26.7865 -3.0586e-08 -0.110722 1.60626 -4.07188 5.37927 -4.38032
161 1 Cr 8.09887 0.503557 2.43513 0 0 0 0 0 0
162 1 Cr 8.09887 0.503557 17.0459 -8.56e-08 -1.6396e-07 -5.01767e-08 3.48032 -3.69479 0.606239
163 1 Cr 6.60369 4.81976 7.3054 0 0 0 0 0 0
164 1 Cr 6.60369 4.81976 21.9162 0.00240367 0.0013878 0.00300122 -4.62304 -3.87552 1.32513
165 1 Cr 6.60369 1.3668 12.1757 4.67075e-08 1.03061e-07 -1.12239e-07 -1.17826 4.67496 -3.42168
166 1 Cr 6.60369 1.3668 26.7865 0.0958883 0.0553612 1.60626 2.56563 0.207928 -0.153358
167 1 Cr 9.59404 3.09328 2.43513 0 0 0 0 0 0
168 1 Cr 9.59404 3.09328 17.0459 -1.41015e-07 8.19866e-08 -6.74216e-08 -5.7735 -4.86705 5.73681
253 2 O 0.730642 9.93704 3.52904 0 0 0 0 0 0
254 2 O 0.730642 9.93704 18.1398 0.0777756 -0.0449038 -0.040902 -0.173556 -0.605458 9.4079
255 2 O 6.71134 6.48408 8.39931 0.0777391 -0.0448827 -0.0408635 10.2274 3.99239 -2.06455
256 2 O 6.71134 6.48408 23.0101 0.0785129 -0.0453295 -0.0140896 2.45288 -10.411 2.36335
257 2 O 3.72099 8.21056 13.2696 0.0777755 -0.0449038 -0.040902 9.47194 2.51675 0.966663
258 2 O 3.72099 8.21056 27.8804 -0.527178 0.304366 -0.391771 -3.41078 5.24307 -8.81186
259 2 O 2.11816 7.53378 3.52904 0 0 0 0 0 0
260 2 O 2.11816 7.53378 18.1398 -2.75605e-09 0.0898075 -0.040902 -8.91999 -2.46132 1.54671
261 2 O 5.10851 9.26026 8.39931 3.73194e-08 0.0897654 -0.0408635 8.34764 -7.15611 -0.4454
262 2 O 5.10851 9.26026 23.0101 3.68631e-08 0.0906589 -0.0140896 -1.99657 -2.07268 7.07136
263 2 O 5.10851 5.8073 13.2696 3.70097e-08 0.0898074 -0.040902 2.82427 -0.94627 10.2536
264 2 O 5.10851 5.8073 27.8804 1.93109e-08 -0.608733 -0.391771 -4.53072 5.93555 4.00043
265 2 O 3.50569 9.93704 3.52904 0 0 0 0 0 0
266 2 O 3.50569 9.93704 18.1398 -0.0777755 -0.0449038 -0.040902 -0.899394 -7.52307 1.7126
267 2 O 3.50569 6.48408 8.39931 -0.0777391 -0.0448827 -0.0408635 5.45619 -2.55918 -6.39703
268 2 O 3.50569 6.48408 23.0101 -0.0785129 -0.0453295 -0.0140896 4.1827 -1.4913 -0.653581
269 2 O 6.49604 8.21056 13.2696 -0.0777756 -0.0449038 -0.040902 3.59946 -3.94748 -4.30012
270 2 O 6.49604 8.21056 27.8804 0.527178 0.304366 -0.391771 -7.84454 4.65415 -1.86852
271 2 O 0.515337 10.0613 11.0818 -0.0777756 0.0449037 0.0409021 2.43867 2.66316 6.56945
272 2 O 0.515337 10.0613 25.6926 -0.111308 0.0642634 0.141211 3.17801 5.56852 4.83747
273 2 O 6.49604 6.60839 1.34122 0 0 0 0 0 0
274 2 O 6.49604 6.60839 15.952 -0.0777756 0.0449037 0.0409021 -0.524963 -9.93021 3.8193
275 2 O 3.50569 8.33487 6.21149 0 0 0 0 0 0
276 2 O 3.50569 8.33487 20.8223 -0.0775788 0.0447901 0.0427167 -5.9628 6.70558 -1.86084
277 2 O 3.72099 10.0613 11.0818 0.0777755 0.0449037 0.0409021 5.6053 6.40808 -7.38932
278 2 O 3.72099 10.0613 25.6926 0.111308 0.0642634 0.141211 9.71862 -6.45109 -7.67545
279 2 O 3.72099 6.60839 1.34122 0 0 0 0 0 0
280 2 O 3.72099 6.60839 15.952 0.0777755 0.0449037 0.0409021 -3.86623 10.063 -2.15856
281 2 O 6.71134 8.33487 6.21149 0 0 0 0 0 0
282 2 O 6.71134 8.33487 20.8223 0.0775789 0.0447901 0.0427167 -6.46757 0.912347 1.46542
283 2 O 2.11816 7.28517 11.0818 -2.76672e-09 -0.0898075 0.0409021 6.19795 -0.909142 4.71995
284 2 O 2.11816 7.28517 25.6926 -1.2793e-09 -0.128527 0.141211 -2.66043 4.52726 5.96343
285 2 O 5.10851 9.01165 1.34122 0 0 0 0 0 0
286 2 O 5.10851 9.01165 15.952 3.69405e-08 -0.0898074 0.0409021 -4.05824 -6.41991 -8.20252
287 2 O 5.10851 5.55869 6.21149 0 0 0 0 0 0
288 2 O 5.10851 5.55869 20.8223 3.79019e-08 -0.0895804 0.0427168 0.0506236 -10.1103 -1.82921
289 2 O 8.09887 5.683 6.23136 0 0 0 0 0 0
290 2 O 8.09887 5.683 20.8422 -3.3724e-09 8.62687e-09 0.105796 -3.32992 0.350654 4.30439
291 3 Zn 8.09887 5.683 4.22754 0 0 0 0 0 0
292 3 Zn 8.09887 5.683 18.8383 -1.30864e-08 1.36606e-08 -0.00023351 0.88408 0.556233 -3.8007
293 2 O 5.10851 7.40947 11.1016 3.72419e-08 1.93565e-08 0.103729 8.1319 -2.63401 -4.92151
294 2 O 5.10851 7.40947 25.7124 2.83959e-08 1.29918e-08 0.141868 -1.0248 4.22063 -6.3634
295 3 Zn 5.10851 7.40947 9.0978 1.16656e-08 1.43627e-08 -0.000437958 1.25181 4.42854 0.694228
296 3 Zn 5.10851 7.40947 23.7086 1.10811e-08 1.41074e-08 -0.124386 -1.45879 -1.55904 -0.83375
297 2 O 2.11816 9.13595 1.36109 0 0 0 0 0 0
298 2 O 2.11816 9.13595 15.9719 -6.67094e-09 2.45905e-08 0.103729 9.75499 -3.76894 -4.36748
299 3 Zn 2.11816 9.13595 13.9681 -1.22911e-08 -7.68605e-09 -0.000265657 -3.44587 -3.39362 -3.70531
300 3 Zn 2.11816 9.13595 28.5789 -7.33057e-09 -2.07458e-09 -1.89352 -1.9331 -0.800088 -3.19734
301 2 O 2.11816 9.13595 8.37944 -6.83636e-09 1.29087e-08 -0.104164 5.44864 -3.5937 2.94354
302 2 O 2.11816 9.13595 22.9902 -6.34471e-09 1.29298e-08 -0.0766526 2.78664 -3.9186 -1.5549
303 3 Zn 2.11816 9.13595 10.3833 -1.26119e-08 1.257e-09 0.000233448 2.96258 2.51407 4.74214
304 3 Zn 2.11816 9.13595 24.9941 -1.6521e-08 -1.12315e-09 -0.13998 -4.04567 -4.50481 -4.3553
305 2 O 8.09887 5.683 13.2497 -4.061e-09 1.62066e-08 -0.103729 9.74577 9.11198 4.51362
306 2 O 8.09887 5.683 27.8605 -7.26835e-09 4.95456e-09 -1.4041 -7.92865 -2.9941 7.72018
307 3 Zn 8.09887 5.683 0.642729 0 0 0 0 0 0
308 3 Zn 8.09887 5.683 15.2535 -1.36008e-08 4.61586e-08 0.000265755 1.97531 -2.05635 -2.57564
309 2 O 5.10851 7.40947 3.50917 0 0 0 0 0 0
310 2 O 5.10851 7.40947 18.12 3.71795e-08 6.36772e-09 -0.103726 -9.29379 -10.3947 4.20621
311 3 Zn 5.10851 7.40947 5.51299 0 0 0 0 0 0
312 3 Zn 5.10851 7.40947 20.1238 1.1637e-08 5.20651e-08 0.0010818 -4.56203 -4.48295 -0.282443
313 3 Zn 2.11816 9.13595 4.87027 0 0 0 0 0 0
314 3 Zn 2.11816 9.13595 19.4811 -4.10389e-08 2.73835e-08 3.2309e-05 3.63835 3.52868 1.59074
315 3 Zn 8.09887 5.683 9.74053 -1.04935e-08 1.59962e-08 -4.39423e-06 3.7333 0.583499 -2.29682
316 3 Zn 8.09887 5.683 24.3513 -1.04579e-08 1.50056e-08 -0.265003 2.2536 3.78219 -4.23173
317 3 Zn 5.10851 7.40947 0 0 0 0 0 0 0
318 3 Zn 5.10851 7.40947 14.6108 4.54677e-08 1.69288e-08 2.65476e-08 -0.809433 1.89576 4.01963
319 1 Cr 0.622989 9.99919 7.3054 0 0 0 0 0 0
320 1 Cr 0.622989 9.99919 21.9162 -0.0024036 0.00138777 0.00300122 0.294635 0.473974 1.35131
321 1 Cr 6.60369 6.54624 12.1757 4.38649e-08 3.95321e-08 -1.04249e-07 -3.58622 -3.81654 3.15525
322 1 Cr 6.60369 6.54624 26.7865 -0.0958882 0.0553611 1.60626 3.68197 -1.90674 -3.13494
323 1 Cr 3.61334 8.27271 2.43513 0 0 0 0 0 0
324 1 Cr 3.61334 8.27271 17.0459 -1.1507e-07 6.9864e-08 -4.0548e-08 -1.98849 -5.17444 -3.91914
325 1 Cr 2.11816 7.40947 7.3054 0 0 0 0 0 0
326 1 Cr 2.11816 7.40947 21.9162 -8.59382e-08 -0.00277545 0.0030012 2.28666 2.63234 5.47908
327 1 Cr 5.10851 9.13595 12.1757 9.14761e-08 4.28338e-08 -1.26129e-07 -5.0636 -5.06173 4.68116
328 1 Cr 5.10851 9.13595 26.7865 7.19069e-08 -0.110722 1.60626 -5.88503 -5.35571 -0.627319
329 1 Cr 5.10851 5.683 2.43513 0 0 0 0 0 0
330 1 Cr 5.10851 5.683 17.0459 9.23988e-08 4.75168e-08 -7.18094e-08 -0.487782 4.07604 -0.628766
331 1 Cr 3.61334 9.99919 7.3054 0 0 0 0 0 0
332 1 Cr 3.61334 9.99919 21.9162 0.00240352 0.00138776 0.00300121 5.03754 0.849722 -4.18759
333 1 Cr 3.61334 6.54624 12.1757 -1.27135e-07 2.34427e-08 -1.10813e-07 4.3676 -2.49034 1.0802
334 1 Cr 3.61334 6.54624 26.7865 0.0958881 0.0553611 1.60626 3.05296 -4.2004 0.373671
335 1 Cr 6.60369 8.27271 2.43513 0 0 0 0 0 0
336 1 Cr 6.60369 8.27271 17.0459 3.10211e-08 5.31454e-08 -4.70855e-08 1.31347 1.03077 0.543806
ITEM: TIMESTEP
100
ITEM: NUMBER OF ATOMS
336
ITEM: BOX BOUNDS xy xz yz pp pp pp
-5.9807006299141401e+00 1.1961401259828300e+01 -5.9807006299141401e+00
0.0000000000000000e+00 1.0358877355870501e+01 0.0000000000000000e+00
0.0000000000000000e+00 4.8578864614561297e+01 0.0000000000000000e+00
ITEM: ATOMS id type element x y z fx fy fz vx vy vz
1 2 O -2.25971 4.7576 3.52904 0 0 0 0 0 0
2 2 O -2.25576 4.81839 18.0898 -0.617073 -0.433566 0.883474 -5.54617 -0.410711 -3.77719
3 2 O 3.81766 1.35473 8.51242 -0.745133 -0.342031 -0.73875 -6.74541 2.58716 -5.81233
4 2 O 3.73123 1.3705 23.1694 0.369793 -0.752664 0.0658711 6.20271 -4.52502 -5.42674
5 2 O 0.768134 2.85815 13.2418 -1.01025 1.42627 1.25177 1.57352 0.740055 6.52542
6 2 O 0.597914 3.08734 28.1383 0.209561 -0.348302 -0.851164 6.7519 0.0366301 1.03857
7 2 O -0.872186 2.35434 3.52904 0 0 0 0 0 0
8 2 O -1.01329 2.35468 18.2263 0.873306 -0.5933 0.712604 -6.99747 -1.45551 -2.16117
9 2 O 2.00311 4.09506 8.39566 1.05958 -0.189488 -0.046027 6.48691 0.647536 -1.56629
10 2 O 2.04504 4.05174 23.146 0.558449 1.06526 -0.190841 0.697173 3.14503 -4.17522
11 2 O 2.14892 0.491016 13.1948 0.0923073 0.314682 0.589443 -7.5527 -9.9012 8.18224
12 2 O 1.99734 0.599525 28.0852 0.55202 -0.226072 0.634229 8.4087 -0.694398 3.8181
13 2 O 0.515337 4.7576 3.52904 0 0 0 0 0 0
14 2 O 0.379917 4.78092 18.2505 0.416506 -0.461678 -0.30504 -4.83457 2.25088 -1.66329
15 2 O 0.598799 1.36321 8.2317 -0.423394 -0.715992 0.900767 -5.91689 -3.05706 -3.64699
16 2 O 0.560344 1.35853 23.0797 -0.229542 0.527636 0.691724 -0.920015 -3.51852 -7.68643
17 2 O 3.42982 2.96825 13.2537 0.846306 -0.0322844 0.726584 4.34255 -4.45709 -0.659345
18 2 O 3.34439 3.17781 28.3823 -0.134247 -0.818991 -1.84602 2.383 8.81622 10.156
19 2 O -2.40691 4.7569 11.2633 -0.404927 0.204391 -0.788713 4.13101 4.55486 2.39383
20 2 O -2.63586 4.97675 25.866 0.617429 -0.932548 0.150813 8.21744 1.8111 -11.2892
21 2 O 3.50569 1.42895 1.34122 0 0 0 0 0 0
22 2 O 3.47761 1.48619 16.0994 -0.00575967 -0.930522 -0.562099 -0.141547 -5.31016 2.82755
23 2 O 0.515337 3.15543 6.21149 0 0 0 0 0 0
24 2 O 0.349528 3.18358 20.8978 1.52514 -0.0170972 0.418034 -5.6042 1.78429 8.26748
25 2 O 0.731361 4.76075 11.1707 -0.83153 0.557968 -0.361561 -1.66324 6.22512 -5.40479
26 2 O 0.77041 4.97877 25.8412 -1.15679 -0.344214 0.439304 -3.2379 6.29294 -1.56541
27 2 O 0.730642 1.42895 1.34122 0 0 0 0 0 0
28 2 O 0.824081 1.31882 16.1269 -1.02611 0.541642 -0.970075 3.38154 -0.700116 4.95517
29 2 O 3.72099 3.15543 6.21149 0 0 0 0 0 0
30 2 O 3.69006 3.09863 21.0881 0.726088 1.00323 -0.546017 -1.59395 -7.83362 -4.06562
31 2 O -0.859663 1.93958 11.125 0.850492 1.10413 -0.685712 -3.77266 -3.40091 4.04096
32 2 O -0.872291 2.16524 25.902 -0.0963032 -0.457364 0.523709 4.63338 2.58501 1.57365
33 2 O 2.11816 3.83221 1.34122 0 0 0 0 0 0
34 2 O 2.03384 3.83267 16.0191 0.209006 -1.01479 0.572694 -5.42049 -2.222 2.27738
35 2 O 2.11816 0.37925 6.21149 0 0 0 0 0 0
36 2 O 2.12151 0.435639 20.8971 0.182702 -0.29577 0.240316 1.81146 4.8791 -3.33455
37 2 O 5.10851 0.503557 6.23136 0 0 0 0 0 0
38 2 O 5.14326 0.612219 20.9087 -0.354886 -0.485994 1.14764 3.82834 -0.804117 -5.90929
39 3 Zn 5.10851 0.503557 4.22754 0 0 0 0 0 0
40 3 Zn 5.07676 0.458893 18.9155 -0.330218 0.62056 -0.0155824 1.17656 6.32989 0.807648
41 2 O 2.09308 2.20645 11.0974 0.436627 -0.184493 0.181744 -8.06071 -6.28419 3.715