LAMMPS (29 Oct 2020)
OMP_NUM_THREADS environment is not set. Defaulting to 1 thread. (src/comm.cpp:94)
  using 1 OpenMP thread(s) per MPI task
Reading data file ...
  triclinic box = (0.0000000 0.0000000 0.0000000) to (5.6102000 4.8585757 18.871000) with tilt (-2.8051000 0.0000000 0.0000000)
  1 by 1 by 1 MPI processor grid
  reading atoms ...
  18 atoms
  reading velocities ...
  18 velocities
  read_data CPU = 0.001 seconds
Changing box ...
  triclinic box = (0.0000000 0.0000000 0.0000000) to (5.6102000 4.8585757 18.871000) with tilt (-2.8051000 0.0000000 0.0000000)
NEQUIP is using device cpu
NequIP Coeff: type 1 is element C
NequIP Coeff: type 2 is element O
NequIP Coeff: type 3 is element Pt
Loading model from /users/40247882/repository/GDPy/examples/expedition/online/nequip/aqueous/surf22-fixed/init/t0/m1/deployed_model.pth
Freezing TorchScript model...
10 atoms in group mobile
8 atoms in group frozen
Neighbor list info ...
  update every 1 steps, delay 10 steps, check yes
  max neighbors/atom: 2000, page size: 100000
  master list distance cutoff = 6
  ghost atom cutoff = 6
  binsize = 3, bins = 3 2 7
  1 neighbor lists, perpetual/occasional/extra = 1 0 0
  (1) pair nequip, perpetual
      attributes: full, newton off
      pair build: full/bin/atomonly
      stencil: full/bin/3d
      bin: standard
Setting up Verlet run ...
  Unit style    : metal
  Current step  : 0
  Time step     : 0.002
Per MPI rank memory allocation (min/avg/max) = 4.329 | 4.329 | 4.329 Mbytes
Step c_mobileTemp PotEng KinEng TotEng Press Volume Lx Ly Lz Xy Xz Yz 
       0    428.04299   -108.00667   0.49796009   -107.50871    1034.0259    514.37782       5.6102    4.8585757       18.871      -2.8051            0            0 
      50    386.29987   -108.07531   0.44939859   -107.62591    933.18676    514.37782       5.6102    4.8585757       18.871      -2.8051            0            0 
     100    468.76703   -108.51041   0.54533605   -107.96507    1132.4032    514.37782       5.6102    4.8585757       18.871      -2.8051            0            0 
Loop time of 45.0106 on 1 procs for 100 steps with 18 atoms

Performance: 0.384 ns/day, 62.515 hours/ns, 2.222 timesteps/s
90.5% CPU use with 1 MPI tasks x 1 OpenMP threads

MPI task timing breakdown:
Section |  min time  |  avg time  |  max time  |%varavg| %total
---------------------------------------------------------------
Pair    | 45.007     | 45.007     | 45.007     |   0.0 | 99.99
Neigh   | 0.00039865 | 0.00039865 | 0.00039865 |   0.0 |  0.00
Comm    | 0.00070759 | 0.00070759 | 0.00070759 |   0.0 |  0.00
Output  | 0.00025382 | 0.00025382 | 0.00025382 |   0.0 |  0.00
Modify  | 0.0016781  | 0.0016781  | 0.0016781  |   0.0 |  0.00
Other   |            | 0.000345   |            |       |  0.00

Nlocal:        18.0000 ave          18 max          18 min
Histogram: 1 0 0 0 0 0 0 0 0 0
Nghost:        349.000 ave         349 max         349 min
Histogram: 1 0 0 0 0 0 0 0 0 0
Neighs:        0.00000 ave           0 max           0 min
Histogram: 1 0 0 0 0 0 0 0 0 0
FullNghs:      852.000 ave         852 max         852 min
Histogram: 1 0 0 0 0 0 0 0 0 0

Total # of neighbors = 852
Ave neighs/atom = 47.333333
Neighbor list builds = 10
Dangerous builds = 10
Total wall time: 0:00:46
