ITEM: TIMESTEP
0
ITEM: NUMBER OF ATOMS
18
ITEM: BOX BOUNDS xy xz yz pp pp pp
-2.8050999999999999e+00 5.6102000000000007e+00 -2.8050999999999999e+00
0.0000000000000000e+00 4.8585757200000002e+00 0.0000000000000000e+00
0.0000000000000000e+00 1.8870999999999999e+01 0.0000000000000000e+00
ITEM: ATOMS id type element x y z fx fy fz vx vy vz
1 1 C 0.177969 4.76584 8.57794 0.547131 0.12402 0.851247 2.59208 0.297901 -16.2167
2 2 O 0.888702 4.84914 9.49616 -0.931334 -0.0111368 -1.14126 -3.08785 1.07935 -7.1187
3 3 Pt 0 0 0 0 0 0 0 0 0
4 3 Pt 1.40255 2.42928 0 0 0 0 0 0 0
5 3 Pt 4.20765 2.42928 0 0 0 0 0 0 0
6 3 Pt 2.80509 0 0 0 0 0 0 0 0
7 3 Pt 2.80512 1.6195 2.29038 0 0 0 0 0 0
8 3 Pt 3e-05 1.6195 2.29038 0 0 0 0 0 0
9 3 Pt 1.40257 4.04879 2.29038 0 0 0 0 0 0
10 3 Pt -1.40252 4.04879 2.29038 0 0 0 0 0 0
11 3 Pt 2.94286 3.14825 4.56617 -0.0347175 0.099874 -0.149474 0.160061 0.142464 -0.204257
12 3 Pt 4.24275 0.710929 4.59916 0.145433 -0.202115 -0.47648 1.95807 -1.80124 -0.415516
13 3 Pt 1.58037 0.672934 4.55684 -0.202626 -0.0110703 -0.539685 -0.84914 -0.795839 -0.357157
14 3 Pt 0.11958 2.97037 4.68519 -0.0396558 0.27557 -0.53363 0.726776 -0.812036 -1.96962
15 3 Pt 4.07307 2.58162 6.97161 0.114155 -0.221948 -0.112243 -0.0628211 0.650856 0.885327
16 3 Pt 1.32381 2.66188 6.83786 0.0582546 -0.283317 0.225917 -0.472346 1.17242 0.895928
17 3 Pt 5.48798 0.1761 6.60761 0.0323282 0.276447 0.316518 -1.1628 2.01376 -0.97831
18 3 Pt 2.59548 0.157512 6.7041 0.279875 0.0234765 0.446811 -0.403605 -0.391289 -1.85276
ITEM: TIMESTEP
50
ITEM: NUMBER OF ATOMS
18
ITEM: BOX BOUNDS xy xz yz pp pp pp
-2.8050999999999999e+00 5.6102000000000007e+00 -2.8050999999999999e+00
0.0000000000000000e+00 4.8585757200000002e+00 0.0000000000000000e+00
0.0000000000000000e+00 1.8870999999999999e+01 0.0000000000000000e+00
ITEM: ATOMS id type element x y z fx fy fz vx vy vz
1 1 C 0.534031 4.84165 8.05152 -0.0376227 0.0116236 -1.83777 2.49437 5.71479 -13.1926
2 2 O 3.46673 0.035707 9.14224 0.301536 0.0199968 2.27568 -4.49345 -2.10717 -8.74184
3 3 Pt 0 0 0 0 0 0 0 0 0
4 3 Pt 1.40255 2.42928 0 0 0 0 0 0 0
5 3 Pt 4.20765 2.42928 0 0 0 0 0 0 0
6 3 Pt 2.80509 0 0 0 0 0 0 0 0
7 3 Pt 2.80512 1.6195 2.29038 0 0 0 0 0 0
8 3 Pt 3e-05 1.6195 2.29038 0 0 0 0 0 0
9 3 Pt 1.40257 4.04879 2.29038 0 0 0 0 0 0
10 3 Pt -1.40252 4.04879 2.29038 0 0 0 0 0 0
11 3 Pt 2.98961 3.0648 4.5859 0.0790579 -0.215548 0.458899 0.843476 -1.98626 1.21163
12 3 Pt 4.35014 0.570661 4.4725 -0.169321 0.159214 0.0808936 0.0384961 -0.644678 -1.57927
13 3 Pt 1.56608 0.632367 4.4465 0.0790822 0.121668 0.286233 0.682702 0.108922 -1.16343
14 3 Pt 0.152982 2.95598 4.47957 0.0100562 0.0335617 0.915767 -0.00739018 0.206712 -0.847185
15 3 Pt 4.03504 2.62201 6.99274 0.0438651 0.23719 -0.285049 -0.761211 0.645562 -0.730631
16 3 Pt 1.32377 2.71034 6.93062 -0.135217 -0.109463 -0.473926 0.257668 0.258563 0.421467
17 3 Pt -0.196818 0.382091 6.6153 0.441651 -0.181457 0.0106027 -0.0423212 1.55448 0.804244
18 3 Pt 2.50637 0.181713 6.40829 -0.619305 -0.0189939 -0.758765 -1.06412 0.319503 -2.29955
ITEM: TIMESTEP
100
ITEM: NUMBER OF ATOMS
18
ITEM: BOX BOUNDS xy xz yz pp pp pp
-2.8050999999999999e+00 5.6102000000000007e+00 -2.8050999999999999e+00
0.0000000000000000e+00 4.8585757200000002e+00 0.0000000000000000e+00
0.0000000000000000e+00 1.8870999999999999e+01 0.0000000000000000e+00
ITEM: ATOMS id type element x y z fx fy fz vx vy vz
1 1 C 3.75971 0.0812604 7.53946 -0.102585 0.171125 -1.74634 15.4073 2.19029 6.10117
2 2 O 3.43836 0.283034 8.63563 -0.322948 0.143278 1.41063 -0.624124 6.52339 1.32411
3 3 Pt 0 0 0 0 0 0 0 0 0
4 3 Pt 1.40255 2.42928 0 0 0 0 0 0 0
5 3 Pt 4.20765 2.42928 0 0 0 0 0 0 0
6 3 Pt 2.80509 0 0 0 0 0 0 0 0
7 3 Pt 2.80512 1.6195 2.29038 0 0 0 0 0 0
8 3 Pt 3e-05 1.6195 2.29038 0 0 0 0 0 0
9 3 Pt 1.40257 4.04879 2.29038 0 0 0 0 0 0
10 3 Pt -1.40252 4.04879 2.29038 0 0 0 0 0 0
11 3 Pt 3.05775 2.96465 4.70478 -0.0267062 0.208707 -0.466739 0.518032 0.263772 0.487736
12 3 Pt 4.41235 0.504069 4.37405 0.0232077 -0.0449396 0.238757 1.4119 -0.874394 -0.39882
13 3 Pt 1.56119 0.632655 4.44916 0.182684 -0.183988 0.439295 -0.679547 -0.352421 1.22346
14 3 Pt 0.174468 2.95325 4.56957 0.0904246 0.00143442 -0.0474323 0.459592 -0.260957 1.63168
15 3 Pt 4.00207 2.74601 6.90083 -0.0591925 -0.150224 0.160409 -0.045238 1.36308 -0.75092
16 3 Pt 1.28641 2.68563 6.8773 0.0182343 -0.116594 -0.0411051 -0.776993 -0.899488 -1.14007
17 3 Pt -0.138203 0.464693 6.66352 -0.388594 -0.266565 -0.0733445 0.690287 0.161257 -0.104786
18 3 Pt 2.32524 0.208172 6.12389 0.591368 0.280617 0.148763 -2.65022 0.596055 -3.39533
