ITEM: TIMESTEP
0
ITEM: NUMBER OF ATOMS
16
ITEM: BOX BOUNDS xy xz yz pp pp pp
0.0000000000000000e+00 8.5505849999999999e+00 2.8501949999999998e+00
0.0000000000000000e+00 4.9366825499999996e+00 0.0000000000000000e+00
0.0000000000000000e+00 2.3271699999999999e+01 0.0000000000000000e+00
ITEM: ATOMS id type element x y z fx fy fz vx vy vz
1 1 Pt 2.91606 0.765495 1.05964 -0.34383 -0.0318247 0.253754 0 0 0
2 1 Pt 4.38205 3.28832 1.13336 -0.510642 -0.203835 0.371594 0 0 0
3 1 Pt 5.58953 0.689642 1.21361 0.565432 -0.0592597 -0.170472 0 0 0
4 1 Pt 7.15138 3.14133 0.993802 0.203378 0.501952 0.361495 0 0 0
5 1 Pt 3.97408 1.74614 3.46609 0.849315 0.692752 0.294811 0 0 0
6 1 Pt 5.57603 4.28229 3.42381 -0.504014 -0.601091 0.415562 0 0 0
7 1 Pt 1.22441 1.85361 3.26677 0.0159908 -0.358249 1.3296 0 0 0
8 1 Pt 2.72461 4.27879 3.62802 -0.195049 -0.373586 -0.593925 0 0 0
9 1 Pt 0.996186 0.340715 5.80101 -0.0271106 -0.0749443 0.0691596 0 0 0
10 1 Pt 2.41186 2.67404 5.88315 0.174352 0.610254 -0.815006 0 0 0
11 1 Pt 3.93596 0.183078 5.76174 -0.440434 0.516412 0.684755 0 0 0
12 1 Pt 5.18192 2.85119 5.86671 0.187051 -0.342486 -0.811797 0 0 0
13 1 Pt 3.47182 3.71316 8.41969 -0.427222 0.679206 -1.05764 0 0 0
14 1 Pt 2.00918 1.3055 8.08787 0.285321 -0.624977 0.587115 0 0 0
15 1 Pt 6.28505 3.5846 8.28674 0.709898 1.8905 -0.578438 0 0 0
16 1 Pt 4.87406 1.50437 8.1881 -0.542435 -2.22082 -0.340564 0 0 0
