ITEM: TIMESTEP
0
ITEM: NUMBER OF ATOMS
337
ITEM: BOX BOUNDS xy xz yz pp pp pp
-5.9807006299141401e+00 1.1961401259828300e+01 -5.9807006299141401e+00
0.0000000000000000e+00 1.0358877355870501e+01 0.0000000000000000e+00
0.0000000000000000e+00 4.8578864614561297e+01 0.0000000000000000e+00
ITEM: ATOMS id type element x y z fx fy fz vx vy vz
1 2 O 0.730642 1.42895 1.34122 -0.301728 -0.173513 -1.58641 0 0 0
2 2 O 3.50569 1.42895 1.34122 0.30145 -0.173551 -1.58599 0 0 0
5 2 O 2.11816 3.83221 1.34122 -0.000257045 0.347971 -1.5853 0 0 0
7 2 O -2.25971 6.60839 1.34122 -0.300935 -0.174175 -1.58448 0 0 0
8 2 O 0.515337 6.60839 1.34122 0.300929 -0.174211 -1.58477 0 0 0
11 2 O -0.872186 9.01165 1.34122 0.000323425 0.347695 -1.58537 0 0 0
13 2 O -0.872186 3.95652 1.36109 1.87739e-06 -0.000500553 0.753835 0 0 0
15 2 O -3.86254 9.13595 1.36109 -0.000429065 7.91957e-06 0.752501 0 0 0
17 2 O 2.11816 2.23004 3.50917 -0.00364941 0.00175751 -0.252721 0 0 0
19 2 O -0.872186 7.40947 3.50917 -0.00194248 -0.00240392 -0.250625 0 0 0
21 2 O -0.872186 2.35434 3.52904 0.00144525 -0.0304483 -0.0479983 0 0 0
23 2 O -2.25971 4.7576 3.52904 -0.0217126 0.00870518 -0.056886 0 0 0
24 2 O 0.515337 4.7576 3.52904 0.0180924 0.0159668 -0.0571378 0 0 0
27 2 O -3.86254 7.53378 3.52904 0.00241669 -0.0292923 -0.0689695 0 0 0
29 2 O -5.25006 9.93704 3.52904 -0.0293237 0.0154429 -0.0635849 0 0 0
30 2 O -2.47501 9.93704 3.52904 0.0280643 0.00862094 -0.0691906 0 0 0
33 2 O 2.11816 0.37925 6.21149 -0.0371352 -0.0561789 0.137105 0 0 0
35 2 O 0.515337 3.15543 6.21149 -0.113758 -0.0434256 0.0551825 0 0 0
36 2 O 3.72099 3.15543 6.21149 0.130988 0.047103 0.0975545 0 0 0
39 2 O -0.872186 5.55869 6.21149 -0.132678 -0.163392 0.0375405 0 0 0
41 2 O -2.47501 8.33487 6.21149 -0.00221162 0.0662489 0.136773 0 0 0
42 2 O 0.730642 8.33487 6.21149 0.105455 0.106102 0.0222457 0 0 0
45 2 O 5.10851 0.503557 6.23136 0.0724111 0.0440604 0.140191 0 0 0
47 2 O 2.11816 5.683 6.23136 0.00530259 0.000229017 0.164167 0 0 0
49 2 O -0.948826 3.95439 8.34615 0.816445 0.0819611 0.390671 0 0 0
51 2 O -3.78015 9.16137 8.37841 -0.773513 -0.192536 -0.0013276 0 0 0
53 2 O 0.52887 1.33113 8.50192 -0.454317 -0.232115 -0.96164 0 0 0
54 2 O 3.74233 1.35712 8.35632 0.462464 -0.757641 0.268838 0 0 0
57 2 O 2.03732 4.01888 8.35312 0.635734 0.822671 0.0401833 0 0 0
59 2 O -2.45048 6.38491 8.27738 -0.15196 1.48911 1.44948 0 0 0
60 2 O 0.714262 6.52755 8.32593 -0.103284 -0.529185 0.132935 0 0 0
63 2 O -0.780235 9.22947 8.39766 -0.750824 0.755219 -0.158612 0 0 0
65 2 O -0.862656 2.16419 11.1819 0.0283551 0.50013 -0.477532 0 0 0
67 2 O -2.46096 4.87096 11.0133 -0.267576 0.487464 0.286999 0 0 0
68 2 O 0.81571 4.86017 11.0325 0.139818 0.503088 0.499261 0 0 0
71 2 O -3.83696 7.4536 11.0851 -0.0986233 -0.587041 -0.674824 0 0 0
73 2 O -5.51572 10.2142 11.0585 -0.0278615 -0.172894 0.73447 0 0 0
74 2 O -2.11814 10.1384 10.9463 -0.277953 0.056093 0.175282 0 0 0
77 2 O 2.12718 2.14028 11.1332 0.0662968 1.25088 -0.812466 0 0 0
79 2 O -0.7312 7.39031 11.0312 -0.623956 0.415456 0.0676645 0 0 0
81 2 O 5.1232 0.457389 13.2129 0.44957 0.952241 -0.518063 0 0 0
83 2 O 2.20733 5.60479 13.281 0.102988 1.05224 -0.484569 0 0 0
85 2 O 2.19597 0.64437 13.2571 -0.0471054 0.943618 -0.39523 0 0 0
87 2 O 0.727571 3.1138 13.3245 1.28889 -0.301359 -0.557468 0 0 0
88 2 O 3.45969 3.11297 13.1971 1.37533 -0.303654 0.749981 0 0 0
91 2 O -0.815295 5.91025 13.3445 -0.067295 0.482305 -1.26549 0 0 0
93 2 O -2.25144 8.32763 13.1709 1.64012 -1.11272 -0.774004 0 0 0
94 2 O 0.477772 8.30258 13.241 0.979032 -0.260708 0.559323 0 0 0
97 2 O 0.853815 1.42278 15.988 -0.926127 -0.226871 -0.100229 0 0 0
98 2 O 3.50553 1.46836 15.9695 0.523897 -0.679083 0.00617734 0 0 0
101 2 O 2.19027 3.81002 16.0804 -0.321138 0.233013 -0.657369 0 0 0
103 2 O -2.08382 6.57104 15.878 -1.11986 0.35706 1.02377 0 0 0
104 2 O 0.517816 6.57428 15.9865 0.253724 0.295661 0.719298 0 0 0
107 2 O -0.808369 9.04489 15.9862 -0.370305 0.0555896 0.330475 0 0 0
109 2 O -0.948664 3.96984 16.055 1.57123 -0.0629738 -0.241775 0 0 0
111 2 O -3.90688 9.05059 16.0064 0.347527 0.239946 0.475546 0 0 0
113 2 O 2.06357 2.19433 18.1907 1.11938 -0.35065 0.236852 0 0 0
115 2 O -0.829191 7.47238 18.1843 -0.470633 -0.823787 0.378977 0 0 0
117 2 O -0.837991 2.31103 18.2509 0.202046 0.348424 -0.158358 0 0 0
119 2 O -2.1663 4.7758 18.227 -0.280099 -0.233315 -0.11517 0 0 0
120 2 O 0.476287 4.85384 18.3398 -0.134107 -0.880865 -0.793441 0 0 0
123 2 O -3.81186 7.48833 18.3079 -0.203968 0.587619 -0.734446 0 0 0
125 2 O -5.30836 9.91271 18.2039 0.413219 0.00943593 -0.00796368 0 0 0
126 2 O -2.50318 9.84885 18.3028 -0.666806 0.0203188 -0.41708 0 0 0
129 2 O 1.96732 0.418294 21.0453 0.58626 -0.885211 -0.00310138 0 0 0
131 2 O 0.457336 3.08857 21.0496 0.925306 -0.0577294 -0.784404 0 0 0
132 2 O 3.56319 3.08783 21.0765 1.42484 0.290677 0.211214 0 0 0
135 2 O -1.05498 5.50192 20.9702 0.665614 -0.529431 0.573746 0 0 0
137 2 O -2.67159 8.27702 20.9957 0.769718 -0.509179 -0.367796 0 0 0
138 2 O 0.514888 8.40958 20.7684 1.27184 -0.188012 1.27821 0 0 0
141 2 O 4.9428 0.44083 21.0421 0.75538 -0.192455 -0.958553 0 0 0
143 2 O 2.09737 5.63263 21.0553 -0.408885 0.208909 0.0143006 0 0 0
145 2 O -0.937376 3.84307 23.1284 -0.0630764 0.103963 -0.313862 0 0 0
147 2 O -3.94903 8.90912 23.073 0.321551 1.47291 1.24458 0 0 0
149 2 O 0.610973 1.18003 23.2902 -1.46792 0.573308 -0.351026 0 0 0
150 2 O 3.63805 1.27111 23.1494 0.653021 -0.877461 0.491454 0 0 0
153 2 O 2.02914 3.97971 23.1542 0.267107 0.384678 0.565372 0 0 0
155 2 O -2.60839 6.29356 23.3048 -0.00100411 0.602116 -0.285664 0 0 0
156 2 O 0.583538 6.49934 23.2508 0.151615 -0.2504 -0.525287 0 0 0
159 2 O -0.913931 9.26975 23.182 0.0328735 -1.07651 0.554842 0 0 0
161 2 O -1.1689 2.10046 25.9499 1.03894 0.564429 -0.314635 0 0 0
163 2 O -2.62709 4.83115 25.929 0.219701 0.149642 0.0215048 0 0 0
164 2 O 0.560513 4.7621 25.9209 0.339645 0.365652 0.183079 0 0 0
167 2 O -3.95612 7.31937 25.9815 -0.104291 -0.0284643 0.459421 0 0 0
169 2 O -5.60969 10.0485 25.8854 0.63433 -0.654995 0.769394 0 0 0
170 2 O -2.3662 10.0944 25.9505 -0.179005 -0.720264 -0.111438 0 0 0
173 2 O 2.08361 2.09894 26.0133 -0.902017 0.525361 -0.305606 0 0 0
175 2 O -0.967055 7.40706 26.0598 -0.657274 -0.0577092 -0.428388 0 0 0
177 2 O 5.17301 0.415635 28.0849 -0.49142 0.261275 -0.6334 0 0 0
179 2 O 1.96391 5.65238 27.9877 0.239381 -0.337565 -0.727897 0 0 0
181 2 O 1.98839 0.570712 28.1284 0.0151655 0.247742 -0.627349 0 0 0
183 2 O 0.522632 2.92723 28.1193 1.20782 -0.110279 -0.37242 0 0 0
184 2 O 3.38082 3.05597 28.1855 -0.154132 -0.374304 -0.948805 0 0 0
187 2 O -1.03637 5.70136 27.9221 0.904801 -0.22034 1.20377 0 0 0
189 2 O -2.32597 8.19278 28.171 0.25543 -0.137577 -0.225691 0 0 0
190 2 O 0.521308 8.14219 28.148 0.364962 -1.26459 0.0904665 0 0 0
193 1 Cr 2.11816 0.503557 2.43513 0.00196587 -1.29969 0.130957 0 0 0
195 1 Cr 0.622989 3.09328 2.43513 -1.12335 0.649452 0.129837 0 0 0
196 1 Cr 3.61334 3.09328 2.43513 1.12422 0.649541 0.128154 0 0 0
199 1 Cr -0.872186 5.683 2.43513 0.0011356 -1.29835 0.129519 0 0 0
201 1 Cr -2.36736 8.27271 2.43513 -1.12429 0.651941 0.128812 0 0 0
202 1 Cr 0.622989 8.27271 2.43513 1.12406 0.648174 0.131222 0 0 0
205 1 Cr -0.872186 2.23004 7.3054 0.378363 0.00147987 0.0234792 0 0 0
207 1 Cr -2.36736 4.81976 7.3054 -0.544375 -1.1306 -0.719336 0 0 0
208 1 Cr 0.622989 4.81976 7.3054 -0.554344 -0.258222 -0.730984 0 0 0
211 1 Cr -3.86254 7.40947 7.3054 -0.0407022 0.22472 -0.31947 0 0 0
213 1 Cr -5.35771 9.99919 7.3054 0.325119 0.451523 0.487992 0 0 0
214 1 Cr -2.36736 9.99919 7.3054 0.748345 0.17054 0.0267653 0 0 0
217 1 Cr 0.632566 1.45529 12.2317 0.289695 -0.65421 0.531024 0 0 0
218 1 Cr 3.68232 1.42193 12.0831 -0.389355 -0.958917 1.21304 0 0 0
221 1 Cr 2.20207 3.99057 12.1371 -1.14099 0.143213 -0.44669 0 0 0
223 1 Cr -2.34452 6.58138 12.0106 0.79736 0.66616 1.44013 0 0 0
224 1 Cr 0.714523 6.64146 12.177 -0.069616 -1.18313 0.116891 0 0 0
227 1 Cr -0.760227 9.19935 12.0661 -0.753617 -0.453962 0.000983974 0 0 0
229 1 Cr 2.13557 0.434711 17.1045 0.132528 0.277841 0.138808 0 0 0
231 1 Cr 0.694084 3.04991 17.1215 -1.19333 0.819529 0.319099 0 0 0
232 1 Cr 3.65368 3.06024 17.0578 -0.313554 -0.359895 1.39503 0 0 0
235 1 Cr -0.856267 5.69557 17.1263 0.429376 -0.276898 0.125009 0 0 0
237 1 Cr -2.32545 8.23387 17.1335 -0.876102 0.232027 -0.199664 0 0 0
238 1 Cr 0.639848 8.30103 17.1958 -0.17557 0.163705 -0.445528 0 0 0
241 1 Cr -0.891555 2.15977 22.0299 -0.330607 -0.562792 0.458715 0 0 0
243 1 Cr -2.46243 4.66346 22.1144 0.119934 0.765869 -0.614467 0 0 0
244 1 Cr 0.566538 4.75547 22.0907 -0.193739 0.711154 0.175921 0 0 0
247 1 Cr -3.96318 7.25049 22.0805 -0.692742 1.1048 0.0529586 0 0 0
249 1 Cr -5.42224 10.0138 22.1753 0.354058 -1.50386 -0.780428 0 0 0
250 1 Cr -2.37987 9.86083 22.0946 -1.99955 0.87368 0.112607 0 0 0
253 1 Cr 0.53125 1.31993 27.1524 -0.50141 -0.98348 0.184326 0 0 0
254 1 Cr 3.47813 1.3855 27.1213 0.518343 -1.19236 1.40027 0 0 0
257 1 Cr 2.02946 3.76292 27.0767 -0.60626 1.93196 0.745584 0 0 0
259 1 Cr -2.46109 6.55477 27.2282 -1.16554 -0.199429 -1.25999 0 0 0
260 1 Cr 0.495055 6.54575 27.0603 0.711301 -1.60971 0.166599 0 0 0
263 1 Cr -0.9434 9.06176 27.1523 -0.998284 1.78668 -0.195398 0 0 0
265 3 Zn 2.11816 2.23004 0 2.74009e-05 -0.000107707 1.40762 0 0 0
267 3 Zn -0.872186 7.40947 0 2.42094e-05 0.000172925 1.40717 0 0 0
269 3 Zn 5.10851 0.503557 0.642729 -0.000100941 8.13149e-05 1.94837 0 0 0
271 3 Zn 2.11816 5.683 0.642729 0.000414688 1.8448e-05 1.94809 0 0 0
273 3 Zn 5.10851 0.503557 4.22754 -0.00653765 0.00258057 0.0201523 0 0 0
275 3 Zn 2.11816 5.683 4.22754 -0.00331732 0.000561963 0.0297805 0 0 0
277 3 Zn -0.872186 3.95652 4.87027 0.0315378 -0.0165891 -0.166063 0 0 0
279 3 Zn -3.86254 9.13595 4.87027 0.00240313 0.00332374 -0.0799436 0 0 0
281 3 Zn 2.11816 2.23004 5.51299 0.0201601 0.0126184 0.00236636 0 0 0
283 3 Zn -0.872186 7.40947 5.51299 0.00757326 0.00283757 -0.0154434 0 0 0
285 3 Zn 2.20021 2.22906 9.03733 -0.701874 -0.0959 0.631575 0 0 0
287 3 Zn -0.863331 7.38548 9.02043 -0.332274 0.183734 0.285806 0 0 0
289 3 Zn 5.28256 0.605932 9.72914 -0.239822 -0.561502 -0.241228 0 0 0
291 3 Zn 2.02284 5.74369 9.60102 0.57761 -0.286623 1.41741 0 0 0
293 3 Zn -0.807762 4.02588 10.3602 -0.246791 -0.255919 0.0353342 0 0 0
295 3 Zn -3.90978 9.39654 10.3696 0.482889 -0.625457 0.108348 0 0 0
297 3 Zn -0.769759 4.08888 13.9706 -0.949188 -0.18283 0.453342 0 0 0
299 3 Zn -3.68365 9.21753 13.9541 -0.978269 -0.034741 0.649336 0 0 0
301 3 Zn 2.17991 2.22485 14.6017 -0.309489 -0.0925825 0.0770301 0 0 0
303 3 Zn -0.833152 7.52911 14.6323 -0.0226315 -0.102013 -0.507795 0 0 0
305 3 Zn 5.14824 0.625833 15.1551 -0.101659 -0.59709 0.720335 0 0 0
307 3 Zn 2.08453 5.59536 15.3209 0.419892 0.633674 -0.120796 0 0 0
309 3 Zn 5.01573 0.39848 19.0036 0.363138 0.618668 -0.0865499 0 0 0
311 3 Zn 2.06152 5.7338 19.0575 0.32047 -0.553132 -0.104951 0 0 0
313 3 Zn -0.826497 3.84025 19.7124 -0.0645902 0.788643 -1.43041 0 0 0
315 3 Zn -4.09362 9.23615 19.7403 0.360659 -0.828943 -0.958683 0 0 0
317 3 Zn 2.17687 2.16288 20.2182 -0.883783 0.144315 -0.340608 0 0 0
319 3 Zn -0.98407 7.31136 20.3794 -0.467504 0.328857 -0.60018 0 0 0
321 3 Zn 2.14919 2.16244 24.0085 -0.23029 0.32113 -0.243451 0 0 0
323 3 Zn -1.0509 7.42903 24.0041 0.112591 -0.337674 -0.38122 0 0 0
325 3 Zn 5.08244 0.425418 24.6302 -0.24044 0.245573 -0.015817 0 0 0
327 3 Zn 1.92528 5.683 24.586 0.014231 -0.508843 -0.506089 0 0 0
329 3 Zn -1.03026 4.16149 25.0178 -0.137809 -0.640479 -0.584699 0 0 0
331 3 Zn -3.96167 9.04329 25.016 -0.116607 0.634376 -0.374203 0 0 0
333 3 Zn -1.02791 3.76152 27.4981 -0.380852 0.475804 0.867963 0 0 0
335 3 Zn -3.92651 9.10883 27.4806 0.208483 0.295201 1.04315 0 0 0
3 2 O 6.71134 1.42895 1.34122 -0.301543 -0.17442 -1.58586 0 0 0
4 2 O 9.48639 1.42895 1.34122 0.301724 -0.174028 -1.58615 0 0 0
6 2 O 8.09887 3.83221 1.34122 0.000363542 0.348435 -1.58649 0 0 0
9 2 O 3.72099 6.60839 1.34122 -0.30145 -0.174101 -1.58569 0 0 0
10 2 O 6.49604 6.60839 1.34122 0.301354 -0.173795 -1.5851 0 0 0
12 2 O 5.10851 9.01165 1.34122 4.78885e-05 0.348029 -1.58649 0 0 0
14 2 O 5.10851 3.95652 1.36109 -2.54356e-05 -0.000180752 0.752359 0 0 0
16 2 O 2.11816 9.13595 1.36109 0.000340133 0.000654733 0.75383 0 0 0
18 2 O 8.09887 2.23004 3.50917 0.00127384 0.00395238 -0.252628 0 0 0
20 2 O 5.10851 7.40947 3.50917 -0.000834186 -0.00139196 -0.253123 0 0 0
22 2 O 5.10851 2.35434 3.52904 0.00444935 -0.025466 -0.0629184 0 0 0
25 2 O 3.72099 4.7576 3.52904 -0.0252695 0.0146949 -0.0555532 0 0 0
26 2 O 6.49604 4.7576 3.52904 0.0275354 0.0105564 -0.0524059 0 0 0
28 2 O 2.11816 7.53378 3.52904 -0.00125836 -0.0280053 -0.0683945 0 0 0
31 2 O 0.730642 9.93704 3.52904 -0.0217705 0.013861 -0.0529502 0 0 0
32 2 O 3.50569 9.93704 3.52904 0.0278954 0.0192145 -0.0610059 0 0 0
34 2 O 8.09887 0.37925 6.21149 0.0364247 -0.135244 0.0274179 0 0 0
37 2 O 6.49604 3.15543 6.21149 -0.163492 0.0868627 0.145197 0 0 0
38 2 O 9.70169 3.15543 6.21149 -0.0283335 0.102567 0.050207 0 0 0
40 2 O 5.10851 5.55869 6.21149 -0.0438609 -0.103437 0.0280375 0 0 0
43 2 O 3.50569 8.33487 6.21149 0.0528237 0.0225472 0.217078 0 0 0
44 2 O 6.71134 8.33487 6.21149 0.0446149 0.23974 0.204237 0 0 0
46 2 O 11.0892 0.503557 6.23136 0.12113 -0.045267 0.275838 0 0 0
48 2 O 8.09887 5.683 6.23136 -0.0925179 -0.188031 0.117713 0 0 0
50 2 O 5.04025 4.0063 8.42159 0.705766 -0.555646 -0.765745 0 0 0
52 2 O 2.08756 9.14924 8.37459 0.637582 -0.0470123 0.0159935 0 0 0
55 2 O 6.54587 1.35329 8.3327 -0.085666 -0.129537 0.510629 0 0 0
56 2 O 9.72101 1.36745 8.35795 -0.697134 -0.348063 0.542019 0 0 0
58 2 O 8.02307 4.05567 8.45919 0.445499 0.965473 -0.662837 0 0 0
61 2 O 3.47591 6.50377 8.42509 0.444736 0.0697066 -0.227891 0 0 0
62 2 O 6.63548 6.55668 8.32509 0.565881 -0.498499 0.503659 0 0 0
64 2 O 5.16397 9.34303 8.49675 -0.630631 -0.0936317 -0.646172 0 0 0
66 2 O 5.23343 2.14761 11.1619 -0.218981 0.83019 -1.12333 0 0 0
69 2 O 3.47672 4.83377 10.9598 0.29369 0.748636 0.757024 0 0 0
70 2 O 6.76293 4.93469 11.1028 -0.68437 -0.21531 -0.258608 0 0 0
72 2 O 2.19796 7.3937 11.0442 0.138098 -1.05427 0.574819 0 0 0
75 2 O 0.769277 10.0854 11.0975 -1.5555 0.534868 -0.0890376 0 0 0
76 2 O 3.76902 10.1803 11.1703 0.746712 0.027491 0.183733 0 0 0
78 2 O 8.22402 2.22498 11.1365 -0.500535 0.638406 0.869606 0 0 0
80 2 O 5.22183 7.64342 11.1247 -0.711663 -1.46842 -0.195865 0 0 0
82 2 O 11.1065 0.637223 13.4401 -0.0202487 -0.466658 -1.38751 0 0 0
84 2 O 8.19247 5.76393 13.1759 -0.525407 0.117367 0.471508 0 0 0
86 2 O 8.13714 0.665068 13.1634 0.587109 -0.590869 1.40378 0 0 0
89 2 O 6.8722 3.05022 13.4295 -1.35046 0.199021 -0.654746 0 0 0
90 2 O 9.50279 3.05681 13.3206 0.410702 0.212653 0.107915 0 0 0
92 2 O 5.29153 5.90227 13.2656 -1.3891 -0.605158 0.423355 0 0 0
95 2 O 3.74343 8.19841 13.3234 0.539994 0.2311 -0.112367 0 0 0
96 2 O 6.57606 8.43497 13.2587 -0.254529 -1.35191 0.418241 0 0 0
99 2 O 6.78018 1.4644 15.8832 0.0389149 -0.561367 0.977576 0 0 0
100 2 O 9.54342 1.37541 16.09 -0.257306 -0.0689597 -0.125491 0 0 0
102 2 O 8.23619 3.88473 16.0452 -0.662967 -0.66178 0.33907 0 0 0
105 2 O 3.79774 6.63317 16.134 -0.874189 -1.39365 -0.523181 0 0 0
106 2 O 6.5211 6.50348 16.077 0.104032 0.213251 -0.266428 0 0 0
108 2 O 4.94187 8.89819 16.0129 1.25272 0.315501 0.335222 0 0 0
110 2 O 5.1287 3.92468 15.9888 -0.0977756 0.0831709 0.17689 0 0 0
112 2 O 2.09685 9.06093 16.1312 0.681958 0.493301 -0.567677 0 0 0
114 2 O 8.11733 2.13941 18.1955 -0.0909779 1.01092 -0.15522 0 0 0
116 2 O 5.1408 7.29542 18.2841 -0.543954 0.37568 -0.290553 0 0 0
118 2 O 5.09586 2.30743 18.201 0.0352298 0.200294 -0.167542 0 0 0
121 2 O 3.7089 4.6705 18.264 0.11207 0.0743372 -0.0975997 0 0 0
122 2 O 6.52989 4.8502 18.2429 -0.00748785 -1.44275 0.0406965 0 0 0
124 2 O 2.14504 7.55529 18.3733 -0.00459775 0.175935 -0.55771 0 0 0
127 2 O 0.678405 10.0649 18.1835 0.448508 -0.641231 -0.117954 0 0 0
128 2 O 3.42592 9.95493 18.2716 0.629818 -0.68893 0.23467 0 0 0
130 2 O 8.06444 0.298208 20.9953 0.353526 0.514554 -0.303436 0 0 0
133 2 O 6.31454 2.9736 20.8634 1.3028 0.147696 0.664941 0 0 0
134 2 O 9.63858 3.13508 20.8213 0.194963 -0.524869 1.15677 0 0 0
136 2 O 5.01235 5.39173 20.925 0.256634 0.0973779 0.772946 0 0 0
139 2 O 3.45469 8.17967 21.0282 0.334097 0.566287 0.28776 0 0 0
140 2 O 6.52735 8.28729 21.033 0.752888 -0.0222662 0.0417453 0 0 0
142 2 O 11.0427 0.321298 20.9258 0.228338 1.0757 1.277 0 0 0
144 2 O 7.98223 5.65301 20.9928 0.500782 -0.774251 0.231587 0 0 0
146 2 O 5.0829 3.87603 23.1017 0.153107 -0.226993 -0.00559455 0 0 0
148 2 O 2.05102 9.1507 23.0836 0.0275631 -0.259347 0.0280034 0 0 0
151 2 O 6.40798 1.15338 23.2646 0.269343 0.658172 -0.414395 0 0 0
152 2 O 9.70965 1.31304 23.162 0.432455 -1.01335 -0.119008 0 0 0
154 2 O 7.9872 3.95432 23.1016 0.32292 -0.566529 0.832907 0 0 0
157 2 O 3.33551 6.35562 23.1871 1.02077 0.89513 0.717311 0 0 0
158 2 O 6.53514 6.49307 23.1721 0.650377 -1.15633 0.105649 0 0 0
160 2 O 5.07914 9.25451 23.3068 -0.317619 0.478153 -0.426387 0 0 0
162 2 O 4.89905 2.17566 26.0427 0.934874 0.197516 -0.53975 0 0 0
165 2 O 3.32406 4.87638 25.8732 0.533201 -0.390516 0.141506 0 0 0
166 2 O 6.53947 4.94008 25.9002 -0.0799567 -0.513117 -0.44325 0 0 0
168 2 O 1.86869 7.29762 25.7901 0.739605 -1.29203 2.03445 0 0 0
171 2 O 0.513965 9.95678 25.9452 -1.1454 0.541534 0.610654 0 0 0
172 2 O 3.46783 9.96185 25.9092 0.393614 -0.0223453 0.619232 0 0 0
174 2 O 7.90721 2.11316 25.9468 0.525648 0.784348 -0.377592 0 0 0
176 2 O 5.01856 7.42069 26.0435 -0.093699 -0.243848 0.0581363 0 0 0
178 2 O 10.9407 0.387501 28.0666 0.0523211 0.15397 -0.503917 0 0 0
180 2 O 7.84478 5.47113 27.905 1.17408 1.50243 0.689785 0 0 0
182 2 O 7.89886 0.560996 28.0725 0.556237 0.695363 0.225865 0 0 0
185 2 O 6.68221 3.0807 28.0065 -0.364467 -0.87754 0.0974306 0 0 0
186 2 O 9.26523 3.01442 28.13 0.0408443 -0.17782 -1.15919 0 0 0
188 2 O 5.06445 5.63257 28.1098 -0.557861 1.32835 -1.27749 0 0 0
191 2 O 3.58623 8.03937 28.2212 1.37173 1.00048 -1.04578 0 0 0
192 2 O 6.49438 8.11214 28.1544 -0.200928 0.0359439 0.470304 0 0 0
194 1 Cr 8.09887 0.503557 2.43513 -0.00301812 -1.29955 0.121724 0 0 0
197 1 Cr 6.60369 3.09328 2.43513 -1.12634 0.650781 0.121144 0 0 0
198 1 Cr 9.59404 3.09328 2.43513 1.1246 0.653096 0.131943 0 0 0
200 1 Cr 5.10851 5.683 2.43513 -0.00134224 -1.30113 0.125384 0 0 0
203 1 Cr 3.61334 8.27271 2.43513 -1.12543 0.647304 0.123209 0 0 0
204 1 Cr 6.60369 8.27271 2.43513 1.12568 0.65146 0.124697 0 0 0
206 1 Cr 5.10851 2.23004 7.3054 0.143325 0.611709 -0.442943 0 0 0
209 1 Cr 3.61334 4.81976 7.3054 -0.394562 0.196789 0.0354634 0 0 0
210 1 Cr 6.60369 4.81976 7.3054 -0.414354 0.0521477 0.103884 0 0 0
212 1 Cr 2.11816 7.40947 7.3054 0.19415 0.528683 -0.522622 0 0 0
215 1 Cr 0.622989 9.99919 7.3054 0.261672 -0.0275571 -0.251855 0 0 0
216 1 Cr 3.61334 9.99919 7.3054 0.0370007 0.289659 0.129534 0 0 0
219 1 Cr 6.68847 1.40938 12.1637 0.598593 -0.644883 1.00167 0 0 0
220 1 Cr 9.69059 1.43604 12.236 -1.01994 0.458319 1.07707 0 0 0
222 1 Cr 8.08334 4.02208 12.2456 1.56306 -0.66609 -0.477636 0 0 0
225 1 Cr 3.72075 6.64163 12.1434 -0.956502 -0.914603 -0.0320734 0 0 0
226 1 Cr 6.62194 6.59296 12.1297 1.97448 1.86233 0.0482914 0 0 0
228 1 Cr 5.14028 9.20887 12.2615 0.316562 1.17877 0.412754 0 0 0
230 1 Cr 8.13029 0.495379 17.2081 -0.761204 -0.873954 -1.07428 0 0 0
233 1 Cr 6.59092 3.03568 17.0689 1.04864 0.693397 0.55751 0 0 0
234 1 Cr 9.69426 3.03174 17.1138 -1.03106 0.876298 0.727703 0 0 0
236 1 Cr 5.10063 5.55737 17.1924 0.358802 1.62038 -0.403758 0 0 0
239 1 Cr 3.61232 8.16075 17.1907 -0.423609 0.802178 0.304802 0 0 0
240 1 Cr 6.55512 8.23625 17.1472 0.920611 -0.908606 0.308662 0 0 0
242 1 Cr 5.05218 2.08026 22.0963 -0.615731 1.30261 -0.0185721 0 0 0
245 1 Cr 3.59183 4.73116 22.1355 -1.46548 -0.0891656 -0.953004 0 0 0
246 1 Cr 6.59757 4.70494 22.0365 -1.60641 -0.0534737 -0.0834688 0 0 0
248 1 Cr 2.04638 7.42162 22.1189 -0.936224 -1.71568 -0.367106 0 0 0
251 1 Cr 0.555844 9.97089 21.9987 -0.216402 -0.155622 0.512789 0 0 0
252 1 Cr 3.63195 9.90617 22.0906 -0.718925 0.416831 -0.112015 0 0 0
255 1 Cr 6.55345 1.38709 27.1375 -1.18429 -0.881237 0.284157 0 0 0
256 1 Cr 9.42699 1.35377 27.0464 -0.128795 -0.873154 1.05342 0 0 0
258 1 Cr 8.00482 3.87961 27.0035 -0.0957774 -0.109595 0.52356 0 0 0
261 1 Cr 3.51963 6.54569 27.1031 -0.296235 -1.70806 0.375703 0 0 0
262 1 Cr 6.45163 6.53636 27.1543 -0.227091 -1.56493 0.105726 0 0 0
264 1 Cr 5.07706 8.98446 27.3051 -0.902801 1.76201 -1.01458 0 0 0
266 3 Zn 8.09887 2.23004 0 -9.57351e-05 4.76312e-05 1.40769 0 0 0
268 3 Zn 5.10851 7.40947 0 -9.6532e-06 5.23012e-05 1.40771 0 0 0
270 3 Zn 11.0892 0.503557 0.642729 0.000312392 -0.000311506 1.94751 0 0 0
272 3 Zn 8.09887 5.683 0.642729 -0.000461346 -0.000174682 1.94839 0 0 0
274 3 Zn 11.0892 0.503557 4.22754 0.00509831 -0.000565515 0.0106515 0 0 0
276 3 Zn 8.09887 5.683 4.22754 -0.00827108 -0.00225497 0.0133384 0 0 0
278 3 Zn 5.10851 3.95652 4.87027 -0.0130269 0.0171688 -0.0792157 0 0 0
280 3 Zn 2.11816 9.13595 4.87027 0.00841654 0.00444068 -0.0945767 0 0 0
282 3 Zn 8.09887 2.23004 5.51299 -0.0114252 -0.0254133 0.0875627 0 0 0
284 3 Zn 5.10851 7.40947 5.51299 0.011554 -0.0472795 0.0232612 0 0 0
286 3 Zn 8.02795 2.31484 9.28263 0.380993 -0.411358 -1.49569 0 0 0
288 3 Zn 5.11983 7.50698 9.13518 -0.302287 -0.331921 -0.274455 0 0 0
290 3 Zn 10.9828 0.589083 9.757 0.847645 0.131985 -0.25016 0 0 0
292 3 Zn 8.00844 5.75793 9.73512 0.434765 -0.0467431 -0.284108 0 0 0
294 3 Zn 5.16269 4.01589 10.3652 -0.210216 -0.0912929 0.204511 0 0 0
296 3 Zn 2.3787 9.20073 10.3987 -1.12631 -0.365269 -0.703422 0 0 0
298 3 Zn 5.16952 4.0356 13.9428 -0.0335164 -0.404123 -0.00817132 0 0 0
300 3 Zn 2.15337 9.11793 13.9896 -0.171184 0.341109 0.307296 0 0 0
302 3 Zn 8.18981 2.27139 14.755 0.434498 0.0553429 -0.791723 0 0 0
304 3 Zn 5.35942 7.37837 14.6545 -0.506644 0.424812 0.0334542 0 0 0
306 3 Zn 11.1349 0.401744 15.4097 0.231823 0.316034 -0.00714077 0 0 0
308 3 Zn 8.17745 5.68108 15.2045 0.163477 0.19442 0.387252 0 0 0
310 3 Zn 11.0759 0.492673 18.9702 -0.200423 -0.268602 -0.239281 0 0 0
312 3 Zn 8.23497 5.63643 19.0802 -0.288178 0.216725 -1.02943 0 0 0
314 3 Zn 5.17702 3.95504 19.6006 -0.55825 -0.658644 -0.793144 0 0 0
316 3 Zn 2.18144 9.05494 19.7719 -0.437159 0.204875 -1.22084 0 0 0
318 3 Zn 8.10768 2.11392 20.1761 -0.552658 0.0718986 0.333846 0 0 0
320 3 Zn 5.01251 7.19709 20.3273 0.381936 0.832547 -0.328625 0 0 0
322 3 Zn 8.13236 2.01504 23.9263 -1.11032 0.556945 -0.0195439 0 0 0
324 3 Zn 5.01946 7.48538 24.0086 -0.240729 -0.886925 -0.190578 0 0 0
326 3 Zn 10.9642 0.47921 24.6269 0.0258321 0.0317956 -0.0587531 0 0 0
328 3 Zn 7.96084 5.70093 24.6723 -0.0907436 0.0714961 -1.01667 0 0 0
330 3 Zn 4.9472 4.26982 24.933 0.0141322 -0.335558 0.105733 0 0 0
332 3 Zn 1.84887 8.94154 24.9797 0.527346 1.38876 -1.26786 0 0 0
334 3 Zn 5.01968 3.81315 27.3691 -0.461796 0.490843 1.36004 0 0 0
336 3 Zn 2.14159 9.18441 27.4705 0.787631 -0.213315 0.487944 0 0 0
337 2 O 1.62676 7.74816 29.0575 -1.59822 0.568374 1.00236 0 0 0
