ITEM: TIMESTEP
0
ITEM: NUMBER OF ATOMS
16
ITEM: BOX BOUNDS xy xz yz pp pp pp
0.0000000000000000e+00 8.5505849999999999e+00 2.8501949999999998e+00
0.0000000000000000e+00 4.9366825499999996e+00 0.0000000000000000e+00
0.0000000000000000e+00 2.3271699999999999e+01 0.0000000000000000e+00
ITEM: ATOMS id type element x y z fx fy fz vx vy vz
1 1 Pt 2.91606 0.765495 1.05964 -0.314882 -0.0508463 0.249132 0 0 0
2 1 Pt 4.38205 3.28832 1.13336 -0.536603 -0.211566 0.38023 0 0 0
3 1 Pt 5.58953 0.689642 1.21361 0.585312 -0.0728583 -0.176799 0 0 0
4 1 Pt 7.15138 3.14133 0.993802 0.224253 0.514759 0.373282 0 0 0
5 1 Pt 3.97408 1.74614 3.46609 0.84616 0.713966 0.309236 0 0 0
6 1 Pt 5.57603 4.28229 3.42381 -0.500016 -0.626303 0.408972 0 0 0
7 1 Pt 1.22441 1.85361 3.26677 -0.00691699 -0.36348 1.3251 0 0 0
8 1 Pt 2.72461 4.27879 3.62802 -0.162403 -0.389525 -0.652809 0 0 0
9 1 Pt 0.996186 0.340715 5.80101 -0.029521 -0.0813396 0.0973684 0 0 0
10 1 Pt 2.41186 2.67404 5.88315 0.189595 0.604627 -0.808779 0 0 0
11 1 Pt 3.93596 0.183078 5.76174 -0.460972 0.52662 0.689876 0 0 0
12 1 Pt 5.18192 2.85119 5.86671 0.205472 -0.346627 -0.841384 0 0 0
13 1 Pt 3.47182 3.71316 8.41969 -0.440138 0.717679 -1.08983 0 0 0
14 1 Pt 2.00918 1.3055 8.08787 0.27989 -0.642845 0.622425 0 0 0
15 1 Pt 6.28505 3.5846 8.28674 0.693256 1.95698 -0.549532 0 0 0
16 1 Pt 4.87406 1.50437 8.1881 -0.572486 -2.24924 -0.336487 0 0 0
