ITEM: TIMESTEP
0
ITEM: NUMBER OF ATOMS
16
ITEM: BOX BOUNDS xy xz yz pp pp pp
0.0000000000000000e+00 8.5505849999999999e+00 2.8501949999999998e+00
0.0000000000000000e+00 4.9366825499999996e+00 0.0000000000000000e+00
0.0000000000000000e+00 2.3271699999999999e+01 0.0000000000000000e+00
ITEM: ATOMS id type element x y z fx fy fz vx vy vz
1 1 Pt 2.91606 0.765495 1.05964 -0.319369 -0.0559245 0.203123 0 0 0
2 1 Pt 4.38205 3.28832 1.13336 -0.498631 -0.234691 0.390274 0 0 0
3 1 Pt 5.58953 0.689642 1.21361 0.614626 -0.0741081 -0.195367 0 0 0
4 1 Pt 7.15138 3.14133 0.993802 0.220192 0.503546 0.324182 0 0 0
5 1 Pt 3.97408 1.74614 3.46609 0.838327 0.682725 0.296466 0 0 0
6 1 Pt 5.57603 4.28229 3.42381 -0.489357 -0.589731 0.404855 0 0 0
7 1 Pt 1.22441 1.85361 3.26677 0.0276614 -0.385289 1.32971 0 0 0
8 1 Pt 2.72461 4.27879 3.62802 -0.153991 -0.382926 -0.638644 0 0 0
9 1 Pt 0.996186 0.340715 5.80101 -0.0141171 -0.0651281 0.128397 0 0 0
10 1 Pt 2.41186 2.67404 5.88315 0.140203 0.613061 -0.753968 0 0 0
11 1 Pt 3.93596 0.183078 5.76174 -0.496392 0.5449 0.674299 0 0 0
12 1 Pt 5.18192 2.85119 5.86671 0.193064 -0.295468 -0.815909 0 0 0
13 1 Pt 3.47182 3.71316 8.41969 -0.447312 0.715663 -1.10519 0 0 0
14 1 Pt 2.00918 1.3055 8.08787 0.261034 -0.656451 0.620355 0 0 0
15 1 Pt 6.28505 3.5846 8.28674 0.666522 1.88183 -0.563683 0 0 0
16 1 Pt 4.87406 1.50437 8.1881 -0.542459 -2.202 -0.2989 0 0 0
