LAMMPS (29 Oct 2020)
OMP_NUM_THREADS environment is not set. Defaulting to 1 thread. (src/comm.cpp:94)
  using 1 OpenMP thread(s) per MPI task
Reading data file ...
  triclinic box = (0.0000000 0.0000000 0.0000000) to (5.6102000 4.8585757 18.871000) with tilt (-2.8051000 0.0000000 0.0000000)
  2 by 1 by 1 MPI processor grid
  reading atoms ...
  18 atoms
  read_data CPU = 0.002 seconds
Changing box ...
  triclinic box = (0.0000000 0.0000000 0.0000000) to (5.6102000 4.8585757 18.871000) with tilt (-2.8051000 0.0000000 0.0000000)
10 atoms in group mobile
8 atoms in group frozen
Summary of lammps EANN module ...
  number of models:  2
  cutoff in model 0: 6 
  elements in model 0: 
    C  0      O  1      Pt  2  
  elements in this system: 
    C  0      O  1      Pt  2  
  out_freq: 50
Neighbor list info ...
  update every 1 steps, delay 10 steps, check yes
  max neighbors/atom: 2000, page size: 100000
  master list distance cutoff = 6
  ghost atom cutoff = 6
  binsize = 3, bins = 3 2 7
  1 neighbor lists, perpetual/occasional/extra = 1 0 0
  (1) pair eann, perpetual
      attributes: full, newton on
      pair build: full/bin/atomonly
      stencil: full/bin/3d
      bin: standard
Setting up Verlet run ...
  Unit style    : metal
  Current step  : 0
  Time step     : 0.002
Per MPI rank memory allocation (min/avg/max) = 4.336 | 4.336 | 4.336 Mbytes
Step c_mobileTemp PotEng KinEng TotEng Press Volume Lx Ly Lz Xy Xz Yz 
       0          300   -109.13074   0.34900239   -108.78174    -15931.83    514.37782       5.6102    4.8585757       18.871      -2.8051            0            0 
      50    163.14251   -108.90873   0.18979043   -108.71894   -20805.842    514.37782       5.6102    4.8585757       18.871      -2.8051            0            0 
     100    222.38498   -108.82306   0.25870963   -108.56435   -22803.152    514.37782       5.6102    4.8585757       18.871      -2.8051            0            0 
     150    266.08904   -108.76366   0.30955237   -108.45411   -37888.875    514.37782       5.6102    4.8585757       18.871      -2.8051            0            0 
     200    351.22807   -108.71049   0.40859812   -108.30189   -38261.973    514.37782       5.6102    4.8585757       18.871      -2.8051            0            0 
     250    446.24486   -108.77271   0.51913507   -108.25357   -18481.191    514.37782       5.6102    4.8585757       18.871      -2.8051            0            0 
     300    335.59121   -108.75764   0.39040712   -108.36724   -17403.695    514.37782       5.6102    4.8585757       18.871      -2.8051            0            0 
     350    269.91775   -108.86149   0.31400647   -108.54749   -15693.703    514.37782       5.6102    4.8585757       18.871      -2.8051            0            0 
     400    189.41616   -108.91094   0.22035564   -108.69058   -18830.726    514.37782       5.6102    4.8585757       18.871      -2.8051            0            0 
     450    177.33978   -108.84968   0.20630669   -108.64338   -29291.412    514.37782       5.6102    4.8585757       18.871      -2.8051            0            0 
     500    268.71495   -108.83469    0.3126072   -108.52208   -28217.408    514.37782       5.6102    4.8585757       18.871      -2.8051            0            0 
     550    448.61369   -108.94112   0.52189084   -108.41923   -27137.925    514.37782       5.6102    4.8585757       18.871      -2.8051            0            0 
     600    254.74667   -108.75476   0.29635733   -108.45841   -20977.105    514.37782       5.6102    4.8585757       18.871      -2.8051            0            0 
     650    260.70301   -108.78041   0.30328658   -108.47713   -11376.241    514.37782       5.6102    4.8585757       18.871      -2.8051            0            0 
     700    187.94771   -108.75667   0.21864734   -108.53802   -17591.082    514.37782       5.6102    4.8585757       18.871      -2.8051            0            0 
     750    213.22516   -108.78167   0.24805364   -108.53361   -28173.431    514.37782       5.6102    4.8585757       18.871      -2.8051            0            0 
     800    240.23999   -108.68571    0.2794811   -108.40623   -28005.828    514.37782       5.6102    4.8585757       18.871      -2.8051            0            0 
     850     349.6641    -108.6404   0.40677869   -108.23363   -31963.994    514.37782       5.6102    4.8585757       18.871      -2.8051            0            0 
     900    446.68795   -108.73593   0.51965054   -108.21628   -25034.158    514.37782       5.6102    4.8585757       18.871      -2.8051            0            0 
     950    253.48792   -108.72645   0.29489297   -108.43155   -9555.0393    514.37782       5.6102    4.8585757       18.871      -2.8051            0            0 
    1000    204.29173   -108.73714   0.23766101   -108.49947    -15596.11    514.37782       5.6102    4.8585757       18.871      -2.8051            0            0 
Loop time of 9.52994 on 2 procs for 1000 steps with 18 atoms

Performance: 18.132 ns/day, 1.324 hours/ns, 104.933 timesteps/s
85.5% CPU use with 2 MPI tasks x 1 OpenMP threads

MPI task timing breakdown:
Section |  min time  |  avg time  |  max time  |%varavg| %total
---------------------------------------------------------------
Pair    | 8.2107     | 8.6261     | 9.0415     |  14.1 | 90.52
Neigh   | 0.0020272  | 0.0022572  | 0.0024872  |   0.5 |  0.02
Comm    | 0.47769    | 0.89349    | 1.3093     |  44.0 |  9.38
Output  | 0.0014105  | 0.0015563  | 0.0017021  |   0.4 |  0.02
Modify  | 0.0052199  | 0.0052569  | 0.005294   |   0.1 |  0.06
Other   |            | 0.001268   |            |       |  0.01

Nlocal:        9.00000 ave          12 max           6 min
Histogram: 1 0 0 0 0 0 0 0 0 1
Nghost:        309.000 ave         312 max         306 min
Histogram: 1 0 0 0 0 0 0 0 0 1
Neighs:        0.00000 ave           0 max           0 min
Histogram: 2 0 0 0 0 0 0 0 0 0
FullNghs:      388.000 ave         500 max         276 min
Histogram: 1 0 0 0 0 0 0 0 0 1

Total # of neighbors = 776
Ave neighs/atom = 43.111111
Neighbor list builds = 100
Dangerous builds = 100
Total wall time: 0:00:09
