ITEM: TIMESTEP
0
ITEM: NUMBER OF ATOMS
18
ITEM: BOX BOUNDS xy xz yz pp pp pp
-2.8050999999999999e+00 5.6101999999999999e+00 -2.8050999999999999e+00
0.0000000000000000e+00 4.8585757200000002e+00 0.0000000000000000e+00
0.0000000000000000e+00 1.8870999999999999e+01 0.0000000000000000e+00
ITEM: ATOMS id type element x y z fx fy fz vx vy vz
1 1 C 2.75244 0.01789 8.86028 0.019909 0.00178657 0.351853 -5.89964 4.7871 5.97049
2 2 O 2.70822 0.01882 10.0185 0.0104407 -0.00249072 -0.135658 5.793 0.220964 2.83164
3 3 Pt 0 0 0 0 0 0 0 0 0
4 3 Pt 1.40255 2.42928 0 0 0 0 0 0 0
6 3 Pt 2.80509 0 0 0 0 0 0 0 0
8 3 Pt 3e-05 1.6195 2.29038 0 0 0 0 0 0
10 3 Pt -1.40252 4.04879 2.29038 0 0 0 0 0 0
13 3 Pt 1.42203 0.80732 4.5688 -0.0542134 0.0292698 -0.0856861 0.361327 -1.62588 -1.48735
14 3 Pt 0.00157 3.26688 4.56932 0.00211517 -0.0608513 -0.0877775 1.23564 -1.53358 1.35155
15 3 Pt -1.39347 2.44429 6.80509 -0.0343305 0.0163065 0.150758 -0.504805 -0.206489 1.49724
17 3 Pt 0.00639 0.01771 6.80452 -0.00563715 -0.0432151 0.152295 -0.706929 0.977029 -1.14322
5 3 Pt 4.20765 2.42928 0 0 0 0 0 0 0
7 3 Pt 2.80512 1.6195 2.29038 0 0 0 0 0 0
9 3 Pt 1.40257 4.04879 2.29038 0 0 0 0 0 0
11 3 Pt 2.80773 3.24649 4.54705 -0.00136976 0.000167093 -0.110273 0.449974 1.30879 -0.489326
12 3 Pt 4.18934 0.80526 4.57518 0.0524376 0.0309314 -0.103495 0.737778 -1.44368 -0.547752
16 3 Pt 1.40531 2.44482 6.80276 0.0276137 0.0150353 0.153779 -1.00224 0.718636 0.261926
18 3 Pt 2.81508 0.019 7.02196 -0.0214363 -0.0132399 -0.0160147 -0.682612 1.49231 -0.0428864
ITEM: TIMESTEP
50
ITEM: NUMBER OF ATOMS
18
ITEM: BOX BOUNDS xy xz yz pp pp pp
-2.8050999999999999e+00 5.6101999999999999e+00 -2.8050999999999999e+00
0.0000000000000000e+00 4.8585757200000002e+00 0.0000000000000000e+00
0.0000000000000000e+00 1.8870999999999999e+01 0.0000000000000000e+00
ITEM: ATOMS id type element x y z fx fy fz vx vy vz
14 3 Pt 0.0590679 3.1324 4.63929 -0.221273 0.528425 -0.371915 -0.31041 -0.716579 -0.241687
17 3 Pt -0.0398131 0.0759802 6.76941 -0.0613564 -0.145916 0.170921 -0.123184 0.124886 0.466925
3 3 Pt 0 0 0 0 0 0 0 0 0
4 3 Pt 1.40255 2.42928 0 0 0 0 0 0 0
6 3 Pt 2.80509 0 0 0 0 0 0 0 0
8 3 Pt 3e-05 1.6195 2.29038 0 0 0 0 0 0
10 3 Pt -1.40252 4.04879 2.29038 0 0 0 0 0 0
13 3 Pt 1.49895 0.733067 4.50324 -0.288517 0.205988 0.760258 1.10352 0.298775 1.04079
16 3 Pt 1.35025 2.51661 6.86101 0.10779 0.0879872 0.0786516 0.035318 0.713954 0.973854
18 3 Pt 2.71489 0.130809 7.08496 0.0982358 -0.310103 0.680646 -1.02855 0.364298 0.987145
5 3 Pt 4.20765 2.42928 0 0 0 0 0 0 0
7 3 Pt 2.80512 1.6195 2.29038 0 0 0 0 0 0
9 3 Pt 1.40257 4.04879 2.29038 0 0 0 0 0 0
11 3 Pt 2.86654 3.22524 4.53413 -0.237119 -0.109838 0.314577 0.574108 -1.99214 0.66827
12 3 Pt 4.20618 0.765053 4.52742 0.0955569 -0.00103023 0.376375 -0.413028 0.656268 -0.0318594
2 2 O 3.03295 0.155363 10.1087 -0.14365 0.0838924 0.564386 4.27436 0.162739 -3.07542
15 3 Pt 4.15125 2.47713 6.91747 0.16082 0.182615 -0.376469 -0.714679 1.13617 0.341323
1 1 C 2.80234 0.179501 8.98162 0.245359 -0.230669 -1.35469 -4.43722 3.92801 1.49752
ITEM: TIMESTEP
100
ITEM: NUMBER OF ATOMS
18
ITEM: BOX BOUNDS xy xz yz pp pp pp
-2.8050999999999999e+00 5.6101999999999999e+00 -2.8050999999999999e+00
0.0000000000000000e+00 4.8585757200000002e+00 0.0000000000000000e+00
0.0000000000000000e+00 1.8870999999999999e+01 0.0000000000000000e+00
ITEM: ATOMS id type element x y z fx fy fz vx vy vz
14 3 Pt 0.0263244 3.19587 4.55583 -0.0231818 0.0238638 0.256065 -0.116134 1.6509 -0.886297
18 3 Pt 2.67136 0.11958 7.17793 -0.0304865 0.365123 -0.892979 0.549055 -0.0373975 1.08451
3 3 Pt 0 0 0 0 0 0 0 0 0
4 3 Pt 1.40255 2.42928 0 0 0 0 0 0 0
6 3 Pt 2.80509 0 0 0 0 0 0 0 0
8 3 Pt 3e-05 1.6195 2.29038 0 0 0 0 0 0
10 3 Pt -1.40252 4.04879 2.29038 0 0 0 0 0 0
13 3 Pt 1.4785 0.745715 4.73902 -0.0871763 0.0467553 -0.626355 -1.45124 -0.24053 2.40372
15 3 Pt -1.46678 2.58835 6.90373 0.20552 -0.512734 0.0240319 0.699815 0.333046 -0.239952
5 3 Pt 4.20765 2.42928 0 0 0 0 0 0 0
7 3 Pt 2.80512 1.6195 2.29038 0 0 0 0 0 0
9 3 Pt 1.40257 4.04879 2.29038 0 0 0 0 0 0
11 3 Pt 2.83021 3.13859 4.62655 -0.0971723 0.435427 -0.467789 -1.29556 0.983697 0.348106
12 3 Pt 4.25204 0.740811 4.60339 -0.234195 0.195343 -0.257193 1.1011 -1.08305 0.979747
2 2 O 3.1928 0.217775 10.0596 0.134306 0.157402 1.99278 1.45788 -0.487159 0.636663
17 3 Pt 5.51066 0.100238 6.85617 -0.0888757 0.159905 0.419088 -1.05402 0.691946 1.51947
1 1 C 2.82146 0.259003 8.98031 0.236076 -0.334716 -0.977236 -2.54313 0.743043 -1.03223
16 3 Pt 1.33205 2.60581 6.96343 -0.149834 -0.263035 -0.298726 -0.642855 0.611435 0.68119
ITEM: TIMESTEP
150
ITEM: NUMBER OF ATOMS
18
ITEM: BOX BOUNDS xy xz yz pp pp pp
-2.8050999999999999e+00 5.6101999999999999e+00 -2.8050999999999999e+00
0.0000000000000000e+00 4.8585757200000002e+00 0.0000000000000000e+00
0.0000000000000000e+00 1.8870999999999999e+01 0.0000000000000000e+00
ITEM: ATOMS id type element x y z fx fy fz vx vy vz
14 3 Pt -0.0395264 3.29721 4.55453 0.0742479 -0.238033 0.239791 -1.19611 0.106537 0.932907
16 3 Pt 1.2887 2.5809 6.9499 0.262145 0.253824 -0.196823 0.186076 -0.700747 -0.936369
3 3 Pt 0 0 0 0 0 0 0 0 0
4 3 Pt 1.40255 2.42928 0 0 0 0 0 0 0
6 3 Pt 2.80509 0 0 0 0 0 0 0 0
8 3 Pt 3e-05 1.6195 2.29038 0 0 0 0 0 0
10 3 Pt -1.40252 4.04879 2.29038 0 0 0 0 0 0
13 3 Pt 1.38905 0.785588 4.8263 0.108978 0.0892359 -0.474925 -0.158801 1.11535 -0.545056
15 3 Pt -1.41974 2.56034 6.8567 -0.392606 0.343182 0.0666603 -0.331371 -0.0829487 -0.730781
5 3 Pt 4.20765 2.42928 0 0 0 0 0 0 0
7 3 Pt 2.80512 1.6195 2.29038 0 0 0 0 0 0
9 3 Pt 1.40257 4.04879 2.29038 0 0 0 0 0 0
11 3 Pt 2.74589 3.22661 4.58721 0.173415 0.0549632 0.136025 -0.101427 0.424334 -0.597166
12 3 Pt 4.22445 0.800946 4.62571 -0.290602 0.165513 0.0640892 -1.77842 2.41497 -0.218446
2 2 O 3.09716 0.130786 10.2841 -0.660128 0.249478 -0.666124 -2.80463 -0.779315 7.60879
17 3 Pt 5.4632 0.163834 7.10847 0.326203 -0.418693 -0.637343 0.569691 0.0295887 2.59763
1 1 C 2.76562 0.233145 9.17117 0.920029 -0.435635 0.00264603 0.762786 -2.64275 0.601295
18 3 Pt 2.72424 0.197601 7.27888 -0.466354 -0.0426291 0.449169 -0.0693263 1.29275 0.646917
ITEM: TIMESTEP
200
ITEM: NUMBER OF ATOMS
18
ITEM: BOX BOUNDS xy xz yz pp pp pp
-2.8050999999999999e+00 5.6101999999999999e+00 -2.8050999999999999e+00
0.0000000000000000e+00 4.8585757200000002e+00 0.0000000000000000e+00
0.0000000000000000e+00 1.8870999999999999e+01 0.0000000000000000e+00
ITEM: ATOMS id type element x y z fx fy fz vx vy vz
14 3 Pt -0.0810092 3.32957 4.6455 0.0687003 0.212412 -0.371264 0.481501 1.00634 0.321419
15 3 Pt -1.51011 2.62526 6.8555 0.34047 -0.299404 0.258974 -0.832723 0.832962 1.02673
3 3 Pt 0 0 0 0 0 0 0 0 0
4 3 Pt 1.40255 2.42928 0 0 0 0 0 0 0
6 3 Pt 2.80509 0 0 0 0 0 0 0 0
8 3 Pt 3e-05 1.6195 2.29038 0 0 0 0 0 0
10 3 Pt -1.40252 4.04879 2.29038 0 0 0 0 0 0
13 3 Pt 1.32694 0.877764 4.67943 -0.16044 -0.00492155 0.00768425 -1.44628 0.595548 -2.12402
17 3 Pt -0.042088 0.10232 7.16004 -0.523947 0.439332 -0.976784 0.669784 -0.563778 -2.03053
1 1 C 2.61242 0.137399 9.20592 0.755754 -0.514164 1.28663 5.62534 -4.28579 -7.68518
2 2 O -0.0741365 4.81493 10.3652 -0.479069 0.460741 -2.01968 -7.0143 0.0715729 -3.28283
5 3 Pt 4.20765 2.42928 0 0 0 0 0 0 0
7 3 Pt 2.80512 1.6195 2.29038 0 0 0 0 0 0
9 3 Pt 1.40257 4.04879 2.29038 0 0 0 0 0 0
11 3 Pt 2.70795 3.38779 4.5616 0.0336311 -0.0308134 0.151616 -0.851745 2.92676 0.0892951
12 3 Pt 4.05925 0.94322 4.64318 0.4403 -0.448861 0.297169 -0.805171 -0.298145 0.805652
16 3 Pt 1.33373 2.60157 6.8449 -0.304197 0.160239 0.322076 0.163744 1.22163 -0.697882
18 3 Pt 2.70732 0.239775 7.32935 0.176081 -0.247636 0.247442 0.093806 -0.5773 0.33435
ITEM: TIMESTEP
250
ITEM: NUMBER OF ATOMS
18
ITEM: BOX BOUNDS xy xz yz pp pp pp
-2.8050999999999999e+00 5.6101999999999999e+00 -2.8050999999999999e+00
0.0000000000000000e+00 4.8585757200000002e+00 0.0000000000000000e+00
0.0000000000000000e+00 1.8870999999999999e+01 0.0000000000000000e+00
ITEM: ATOMS id type element x y z fx fy fz vx vy vz
14 3 Pt -0.113086 3.43006 4.60623 -0.132253 -0.128668 0.0444039 -1.32254 0.624074 -0.713792
2 2 O -0.44523 4.7502 10.1056 -0.0634231 0.248223 -0.457733 -7.03659 2.54474 -3.39154
3 3 Pt 0 0 0 0 0 0 0 0 0
4 3 Pt 1.40255 2.42928 0 0 0 0 0 0 0
6 3 Pt 2.80509 0 0 0 0 0 0 0 0
8 3 Pt 3e-05 1.6195 2.29038 0 0 0 0 0 0
10 3 Pt -1.40252 4.04879 2.29038 0 0 0 0 0 0
13 3 Pt 1.25368 1.00732 4.52271 0.601514 0.00413844 0.459787 0.77765 2.01452 -0.540824
17 3 Pt -0.0505994 0.207142 6.79936 0.258575 0.0537745 0.727718 -0.280822 2.28802 -3.5105
1 1 C 2.48669 0.0620903 8.95871 -0.0587593 -0.407951 2.39512 8.7189 -5.43901 1.51549
15 3 Pt -1.50729 2.61611 6.95666 -0.0148363 0.188752 -0.258603 0.591446 -0.592962 0.512427
5 3 Pt 4.20765 2.42928 0 0 0 0 0 0 0
7 3 Pt 2.80512 1.6195 2.29038 0 0 0 0 0 0
9 3 Pt 1.40257 4.04879 2.29038 0 0 0 0 0 0
11 3 Pt 2.69609 3.49275 4.59674 0.137147 -0.868239 -0.225659 0.751753 -1.8001 0.218436
12 3 Pt 4.00596 0.970059 4.75892 -0.13678 0.331273 -0.740876 -0.805765 1.58747 0.622507
16 3 Pt 1.29783 2.65022 6.85097 0.179938 -0.361451 0.0145138 -0.491112 -0.632866 0.54779
18 3 Pt 2.77763 0.16854 7.2116 -0.151923 0.407262 -1.98098 0.328115 -0.213535 -2.11251
ITEM: TIMESTEP
300
ITEM: NUMBER OF ATOMS
18
ITEM: BOX BOUNDS xy xz yz pp pp pp
-2.8050999999999999e+00 5.6101999999999999e+00 -2.8050999999999999e+00
0.0000000000000000e+00 4.8585757200000002e+00 0.0000000000000000e+00
0.0000000000000000e+00 1.8870999999999999e+01 0.0000000000000000e+00
ITEM: ATOMS id type element x y z fx fy fz vx vy vz
14 3 Pt -0.151973 3.47688 4.58617 0.468818 -0.244081 0.266691 1.0535 0.249993 0.486069
2 2 O 2.21479 0.0189375 10.0444 0.211116 0.0356676 -0.224321 -2.88403 4.04196 -0.941724
3 3 Pt 0 0 0 0 0 0 0 0 0
4 3 Pt 1.40255 2.42928 0 0 0 0 0 0 0
6 3 Pt 2.80509 0 0 0 0 0 0 0 0
8 3 Pt 3e-05 1.6195 2.29038 0 0 0 0 0 0
10 3 Pt -1.40252 4.04879 2.29038 0 0 0 0 0 0
13 3 Pt 1.33026 1.07911 4.53887 -0.407024 -0.671179 0.0385458 -0.283141 -1.13173 0.378818
17 3 Pt -0.0272553 0.293067 6.69899 -0.446619 -0.527567 0.700452 -0.244149 -1.03446 1.20152
1 1 C 2.48934 0.0781156 8.92021 -0.0217774 0.0488618 -0.605185 9.45299 -4.52648 7.38103
15 3 Pt -1.49368 2.65268 6.95887 -0.111439 -0.0670058 -0.425203 -0.334213 0.958872 -0.619178
5 3 Pt 4.20765 2.42928 0 0 0 0 0 0 0
7 3 Pt 2.80512 1.6195 2.29038 0 0 0 0 0 0
9 3 Pt 1.40257 4.04879 2.29038 0 0 0 0 0 0
11 3 Pt 2.71387 3.38472 4.57877 -0.103316 0.816816 0.0390145 -0.62792 1.28314 -0.28728
12 3 Pt 4.0188 1.02742 4.6151 0.849595 -0.546386 0.00331915 2.12919 -1.32129 -2.65698
18 3 Pt 2.75464 0.161975 7.03623 0.071794 0.0955338 1.07065 -0.518971 0.182381 -1.48697
16 3 Pt 1.33088 2.6069 6.88254 0.14525 0.423035 -0.142892 1.02551 0.690654 0.0157745
ITEM: TIMESTEP
350
ITEM: NUMBER OF ATOMS
18
ITEM: BOX BOUNDS xy xz yz pp pp pp
-2.8050999999999999e+00 5.6101999999999999e+00 -2.8050999999999999e+00
0.0000000000000000e+00 4.8585757200000002e+00 0.0000000000000000e+00
0.0000000000000000e+00 1.8870999999999999e+01 0.0000000000000000e+00
ITEM: ATOMS id type element x y z fx fy fz vx vy vz
14 3 Pt -0.0373265 3.41796 4.64587 -0.0823858 -0.0720966 -0.446667 0.680154 -1.16188 0.109989
2 2 O 2.53684 0.277048 9.99718 0.100856 -0.05625 1.32472 2.62453 4.12097 -5.70676
3 3 Pt 0 0 0 0 0 0 0 0 0
4 3 Pt 1.40255 2.42928 0 0 0 0 0 0 0
6 3 Pt 2.80509 0 0 0 0 0 0 0 0
8 3 Pt 3e-05 1.6195 2.29038 0 0 0 0 0 0
10 3 Pt -1.40252 4.04879 2.29038 0 0 0 0 0 0
13 3 Pt 1.35169 0.933232 4.59383 0.591057 0.285882 0.134644 1.55005 -0.829103 0.725827
15 3 Pt -1.50274 2.66136 6.80904 0.314654 -0.220922 0.1353 0.557348 -0.848996 -1.76786
5 3 Pt 4.20765 2.42928 0 0 0 0 0 0 0
7 3 Pt 2.80512 1.6195 2.29038 0 0 0 0 0 0
9 3 Pt 1.40257 4.04879 2.29038 0 0 0 0 0 0
11 3 Pt 2.73238 3.44638 4.55691 0.402417 -0.870122 -0.0356838 1.3962 -1.5529 -0.199263
12 3 Pt 4.22491 0.945883 4.48366 -0.78533 0.348691 0.837266 0.369432 0.522466 0.734479
18 3 Pt 2.74601 0.221921 7.00036 -0.134172 -0.0371041 0.505605 -0.291992 1.04986 0.816558
16 3 Pt 1.39294 2.67592 6.85523 -0.402622 -0.492071 0.0623011 -0.33217 0.00379362 -0.324165
17 3 Pt 5.49281 0.202861 6.91062 0.435707 0.420039 -0.316844 -0.817603 0.0528295 2.02022
1 1 C 2.73038 0.199151 8.87186 -0.290479 0.186573 -1.55774 8.13064 -2.45179 -1.89776
ITEM: TIMESTEP
400
ITEM: NUMBER OF ATOMS
18
ITEM: BOX BOUNDS xy xz yz pp pp pp
-2.8050999999999999e+00 5.6101999999999999e+00 -2.8050999999999999e+00
0.0000000000000000e+00 4.8585757200000002e+00 0.0000000000000000e+00
0.0000000000000000e+00 1.8870999999999999e+01 0.0000000000000000e+00
ITEM: ATOMS id type element x y z fx fy fz vx vy vz
14 3 Pt 0.0510215 3.34688 4.54095 -0.146777 -0.109781 0.0744825 1.11511 -0.401343 -1.74379
15 3 Pt -1.41651 2.6165 6.7825 -0.225661 0.351386 0.405497 0.792231 0.429837 1.35759
3 3 Pt 0 0 0 0 0 0 0 0 0
4 3 Pt 1.40255 2.42928 0 0 0 0 0 0 0
6 3 Pt 2.80509 0 0 0 0 0 0 0 0
8 3 Pt 3e-05 1.6195 2.29038 0 0 0 0 0 0
10 3 Pt -1.40252 4.04879 2.29038 0 0 0 0 0 0
13 3 Pt 1.48007 0.880328 4.64782 -0.558939 -0.126106 -0.156136 0.0817156 -0.682098 0.122537
17 3 Pt -0.0881358 0.222165 6.9583 0.165048 -0.417021 -0.440918 0.996322 -0.423866 -0.996717
5 3 Pt 4.20765 2.42928 0 0 0 0 0 0 0
7 3 Pt 2.80512 1.6195 2.29038 0 0 0 0 0 0
9 3 Pt 1.40257 4.04879 2.29038 0 0 0 0 0 0
11 3 Pt 2.83639 3.30489 4.5311 -0.213497 0.500796 0.244508 0.253586 -0.163584 -0.0995284
12 3 Pt 4.20691 0.914937 4.63178 0.401785 -0.395401 -0.346079 0.400602 -1.806 1.2534
18 3 Pt 2.68162 0.253567 7.0908 0.323004 -0.370985 -0.44833 -0.737298 -0.536204 1.12248
16 3 Pt 1.31711 2.6396 6.85134 0.30333 0.20805 0.000227451 -0.653535 0.0108827 0.16799
2 2 O 2.92023 0.445505 10.0335 0.326415 -0.111959 1.11198 2.87857 1.37457 5.57064
1 1 C 2.95292 0.265999 8.89925 -0.579958 0.235876 -0.431748 3.12422 -2.00141 1.68914
ITEM: TIMESTEP
450
ITEM: NUMBER OF ATOMS
18
ITEM: BOX BOUNDS xy xz yz pp pp pp
-2.8050999999999999e+00 5.6101999999999999e+00 -2.8050999999999999e+00
0.0000000000000000e+00 4.8585757200000002e+00 0.0000000000000000e+00
0.0000000000000000e+00 1.8870999999999999e+01 0.0000000000000000e+00
ITEM: ATOMS id type element x y z fx fy fz vx vy vz
14 3 Pt 0.05025 3.2415 4.49679 -0.236448 0.117829 0.579416 -1.28366 -1.56789 1.37252
15 3 Pt -1.40667 2.64833 6.91956 0.0445873 -0.533032 -0.300882 -0.369798 -0.621473 0.826821
3 3 Pt 0 0 0 0 0 0 0 0 0
4 3 Pt 1.40255 2.42928 0 0 0 0 0 0 0
6 3 Pt 2.80509 0 0 0 0 0 0 0 0
8 3 Pt 3e-05 1.6195 2.29038 0 0 0 0 0 0
10 3 Pt -1.40252 4.04879 2.29038 0 0 0 0 0 0
13 3 Pt 1.45227 0.820235 4.62441 0.415558 0.144076 0.0458131 0.33413 -0.248506 -0.445125
17 3 Pt -0.0127595 0.113623 6.83588 -0.003801 0.404943 0.526511 0.42853 -1.05873 -0.560602
5 3 Pt 4.20765 2.42928 0 0 0 0 0 0 0
7 3 Pt 2.80512 1.6195 2.29038 0 0 0 0 0 0
9 3 Pt 1.40257 4.04879 2.29038 0 0 0 0 0 0
11 3 Pt 2.86743 3.27842 4.58746 -0.108886 -0.423155 -0.22737 0.505347 -1.34248 0.83274
12 3 Pt 4.24541 0.790596 4.66153 -0.556142 0.47567 -0.39327 -0.616013 0.167407 -0.784504
1 1 C 3.07605 0.200622 9.11274 -0.588305 0.512024 0.335188 -2.57343 -0.0598425 -0.664183
16 3 Pt 1.33944 2.6697 6.85072 0.0803195 -0.501874 -0.00187778 0.938116 -0.0688367 -0.200644
2 2 O 3.14107 0.339001 10.2725 0.13839 -0.357296 -1.30846 2.30012 -2.4175 3.41962
18 3 Pt 2.71844 0.213091 7.23673 0.60635 0.19259 0.596925 1.63415 0.242313 1.2185
ITEM: TIMESTEP
500
ITEM: NUMBER OF ATOMS
18
ITEM: BOX BOUNDS xy xz yz pp pp pp
-2.8050999999999999e+00 5.6101999999999999e+00 -2.8050999999999999e+00
0.0000000000000000e+00 4.8585757200000002e+00 0.0000000000000000e+00
0.0000000000000000e+00 1.8870999999999999e+01 0.0000000000000000e+00
ITEM: ATOMS id type element x y z fx fy fz vx vy vz
14 3 Pt -0.044335 3.17489 4.68929 0.346276 0.32657 -0.622274 -0.0166587 0.501305 1.41524
15 3 Pt -1.37276 2.51874 6.96207 0.159046 0.544146 -0.194567 1.1979 -0.968636 0.101045
3 3 Pt 0 0 0 0 0 0 0 0 0
4 3 Pt 1.40255 2.42928 0 0 0 0 0 0 0
6 3 Pt 2.80509 0 0 0 0 0 0 0 0
8 3 Pt 3e-05 1.6195 2.29038 0 0 0 0 0 0
10 3 Pt -1.40252 4.04879 2.29038 0 0 0 0 0 0
13 3 Pt 1.48342 0.773787 4.61007 -0.629732 -0.11529 0.113293 -0.827332 -1.01859 0.296057
17 3 Pt 0.0489338 0.106207 6.84791 0.177879 -0.184098 -0.077241 1.0827 0.424137 0.25347
5 3 Pt 4.20765 2.42928 0 0 0 0 0 0 0
7 3 Pt 2.80512 1.6195 2.29038 0 0 0 0 0 0
9 3 Pt 1.40257 4.04879 2.29038 0 0 0 0 0 0
11 3 Pt 2.82348 3.18143 4.58659 -0.20386 0.652596 -0.0397769 -1.60958 0.612791 -0.737264
12 3 Pt 4.15534 0.770088 4.5495 0.632163 -0.308297 0.494469 0.0413451 -1.47595 -0.681649
1 1 C 3.06714 0.058837 9.08054 -0.397345 0.300609 1.88921 -7.2821 2.51528 -4.88088
16 3 Pt 1.40855 2.55203 6.86688 0.034895 -0.0214352 0.218115 0.403595 -1.98095 0.784619
2 2 O 3.06205 0.0691033 10.2528 0.210338 -0.192377 -1.25985 0.105794 -4.33135 -5.0702
18 3 Pt 2.90079 0.233904 7.28236 -0.324762 -0.793718 -1.02696 1.57724 -0.971716 -0.0041731
ITEM: TIMESTEP
550
ITEM: NUMBER OF ATOMS
18
ITEM: BOX BOUNDS xy xz yz pp pp pp
-2.8050999999999999e+00 5.6101999999999999e+00 -2.8050999999999999e+00
0.0000000000000000e+00 4.8585757200000002e+00 0.0000000000000000e+00
0.0000000000000000e+00 1.8870999999999999e+01 0.0000000000000000e+00
ITEM: ATOMS id type element x y z fx fy fz vx vy vz
14 3 Pt -0.0254871 3.22916 4.67202 -0.078759 -0.187168 -0.463165 -0.0270547 0.0521203 -1.71752
15 3 Pt -1.28642 2.50666 6.91866 -0.402294 -0.474187 -0.131183 -0.107941 -0.196143 -0.932395
3 3 Pt 0 0 0 0 0 0 0 0 0
4 3 Pt 1.40255 2.42928 0 0 0 0 0 0 0
6 3 Pt 2.80509 0 0 0 0 0 0 0 0
8 3 Pt 3e-05 1.6195 2.29038 0 0 0 0 0 0
10 3 Pt -1.40252 4.04879 2.29038 0 0 0 0 0 0
13 3 Pt 1.35603 0.731615 4.60493 0.580729 0.498039 -0.192348 -0.499249 0.853631 -0.720646
17 3 Pt 0.146121 0.0387977 6.89729 -0.267154 -0.196326 0.0934292 0.543316 -1.81338 0.982568
2 2 O -0.0128994 4.67601 10.1181 0.141587 -0.00853721 -0.300155 0.40976 -4.16041 1.50566
5 3 Pt 4.20765 2.42928 0 0 0 0 0 0 0
7 3 Pt 2.80512 1.6195 2.29038 0 0 0 0 0 0
9 3 Pt 1.40257 4.04879 2.29038 0 0 0 0 0 0
11 3 Pt 2.71969 3.22297 4.55952 0.638061 -0.626513 0.288826 0.420671 -1.18364 0.525748
12 3 Pt 4.20233 0.724309 4.61479 -0.503597 0.765243 0.15408 -0.246241 1.80564 1.71521
1 1 C 0.103805 4.74117 8.96483 -0.193384 0.107338 0.630705 -10.5379 4.01727 6.00194
16 3 Pt 1.51284 2.39649 6.95739 0.206685 0.0786403 -0.387207 1.96035 -1.13945 0.465772
18 3 Pt 0.17906 4.85732 7.13779 0.063929 0.207397 -0.283797 0.781977 -3.01515 -2.61892
ITEM: TIMESTEP
600
ITEM: NUMBER OF ATOMS
18
ITEM: BOX BOUNDS xy xz yz pp pp pp
-2.8050999999999999e+00 5.6101999999999999e+00 -2.8050999999999999e+00
0.0000000000000000e+00 4.8585757200000002e+00 0.0000000000000000e+00
0.0000000000000000e+00 1.8870999999999999e+01 0.0000000000000000e+00
ITEM: ATOMS id type element x y z fx fy fz vx vy vz
14 3 Pt 0.00676534 3.25816 4.47796 0.159538 0.108263 0.782523 0.918408 0.859243 -1.08578
15 3 Pt -1.28809 2.36374 6.852 0.569147 0.0155852 0.444087 0.987468 -2.1039 0.228555
3 3 Pt 0 0 0 0 0 0 0 0 0
4 3 Pt 1.40255 2.42928 0 0 0 0 0 0 0
6 3 Pt 2.80509 0 0 0 0 0 0 0 0
8 3 Pt 3e-05 1.6195 2.29038 0 0 0 0 0 0
10 3 Pt -1.40252 4.04879 2.29038 0 0 0 0 0 0
13 3 Pt 1.37422 0.824542 4.55413 -0.112896 -0.405885 0.242652 0.18007 0.11085 0.151255
17 3 Pt -2.64683 4.75687 6.9434 0.0576115 0.273964 -0.412372 0.203537 -0.513593 -0.564627
2 2 O -0.170526 4.60073 10.0356 -0.147824 0.0667092 0.439265 3.46271 -2.56258 -3.14748
1 1 C -0.0718001 4.66525 8.89059 0.472697 -0.162588 -1.32439 -9.00967 5.07971 0.397784
5 3 Pt 4.20765 2.42928 0 0 0 0 0 0 0
7 3 Pt 2.80512 1.6195 2.29038 0 0 0 0 0 0
9 3 Pt 1.40257 4.04879 2.29038 0 0 0 0 0 0
11 3 Pt 2.81442 3.17065 4.6121 -0.222846 0.939241 -0.358322 0.623768 1.72826 -0.103781
12 3 Pt 4.1563 0.849761 4.71914 0.521538 -1.06592 -0.944376 0.339869 -1.10753 -0.680714
18 3 Pt 0.218217 4.6451 6.99656 -0.477624 0.202706 1.33343 -0.0240536 -1.50052 -0.226281
16 3 Pt 1.6496 2.26859 6.9171 -0.695285 -0.029086 -0.119725 -0.0278094 -1.73269 -0.989748
ITEM: TIMESTEP
650
ITEM: NUMBER OF ATOMS
18
ITEM: BOX BOUNDS xy xz yz pp pp pp
-2.8050999999999999e+00 5.6101999999999999e+00 -2.8050999999999999e+00
0.0000000000000000e+00 4.8585757200000002e+00 0.0000000000000000e+00
0.0000000000000000e+00 1.8870999999999999e+01 0.0000000000000000e+00
ITEM: ATOMS id type element x y z fx fy fz vx vy vz
14 3 Pt 0.0561973 3.26144 4.57895 -0.181653 -0.405388 0.146333 -0.329423 -1.3587 2.48333
15 3 Pt -1.16807 2.17279 6.88221 -0.672709 0.140788 -0.353214 0.223998 -1.62868 -0.369281
3 3 Pt 0 0 0 0 0 0 0 0 0
4 3 Pt 1.40255 2.42928 0 0 0 0 0 0 0
6 3 Pt 2.80509 0 0 0 0 0 0 0 0
8 3 Pt 3e-05 1.6195 2.29038 0 0 0 0 0 0
10 3 Pt -1.40252 4.04879 2.29038 0 0 0 0 0 0
13 3 Pt 1.43335 0.811991 4.55939 0.389351 0.0388828 -0.416018 1.55829 0.121757 -0.647691
17 3 Pt -2.63004 4.69644 6.84643 -0.202346 -0.415206 0.22411 0.0225327 -1.32046 -0.774116
2 2 O -0.0313492 4.55302 9.98987 -0.281755 0.0820848 2.18897 5.09478 -1.69171 -0.919081
1 1 C -0.0651589 4.65382 8.85567 0.566353 -0.21468 -1.24889 -3.52409 3.64409 -1.70244
5 3 Pt 4.20765 2.42928 0 0 0 0 0 0 0
7 3 Pt 2.80512 1.6195 2.29038 0 0 0 0 0 0
9 3 Pt 1.40257 4.04879 2.29038 0 0 0 0 0 0
11 3 Pt 2.88078 3.30986 4.5603 0.0431578 -1.27593 0.0667745 1.00326 -1.093 -0.558118
12 3 Pt 4.23625 0.72798 4.5215 -0.263543 0.863484 0.537436 0.480955 0.608384 -1.92177
18 3 Pt 0.17633 4.56081 7.05503 0.0125272 0.441447 -0.714319 -0.259721 -0.112796 1.47089
16 3 Pt 1.58687 2.16001 6.81162 0.454474 0.661941 0.296588 -0.0815143 0.0498351 -0.761553
ITEM: TIMESTEP
700
ITEM: NUMBER OF ATOMS
18
ITEM: BOX BOUNDS xy xz yz pp pp pp
-2.8050999999999999e+00 5.6101999999999999e+00 -2.8050999999999999e+00
0.0000000000000000e+00 4.8585757200000002e+00 0.0000000000000000e+00
0.0000000000000000e+00 1.8870999999999999e+01 0.0000000000000000e+00
ITEM: ATOMS id type element x y z fx fy fz vx vy vz
14 3 Pt 0.0781226 3.16355 4.73968 0.362194 0.44895 -0.558719 1.27278 0.19743 0.120037
17 3 Pt -2.62411 4.55129 6.79151 0.106006 0.604214 0.0481135 0.439543 -0.617611 -0.513376
3 3 Pt 0 0 0 0 0 0 0 0 0
4 3 Pt 1.40255 2.42928 0 0 0 0 0 0 0
6 3 Pt 2.80509 0 0 0 0 0 0 0 0
8 3 Pt 3e-05 1.6195 2.29038 0 0 0 0 0 0
10 3 Pt -1.40252 4.04879 2.29038 0 0 0 0 0 0
13 3 Pt 1.55053 0.741116 4.50357 -0.645732 -0.390669 0.62967 -0.244884 -1.96828 0.552954
1 1 C 0.0785805 4.71147 9.04594 0.742751 -0.505543 -0.15901 0.806533 2.17793 2.05915
5 3 Pt 4.20765 2.42928 0 0 0 0 0 0 0
7 3 Pt 2.80512 1.6195 2.29038 0 0 0 0 0 0
9 3 Pt 1.40257 4.04879 2.29038 0 0 0 0 0 0
11 3 Pt 2.91772 3.12161 4.51966 -0.262144 0.710844 -0.00621638 -0.565093 -0.698473 -0.326697
12 3 Pt 4.29414 0.771127 4.50719 0.288854 -0.947898 0.336047 1.26421 -1.49696 1.36839
16 3 Pt 1.63869 2.22342 6.8178 -0.536246 -0.310457 0.194235 0.215599 0.244805 0.769396
2 2 O 0.307077 4.60905 10.18 -0.446623 0.296672 -0.26365 3.7383 0.731061 6.91553
18 3 Pt 0.14896 4.60105 7.17152 -0.356465 -0.106381 0.250357 -0.513046 0.284761 0.547846
15 3 Pt 4.35225 2.06866 6.83557 0.374905 0.413591 0.415367 -1.05294 -0.239597 0.191968
ITEM: TIMESTEP
750
ITEM: NUMBER OF ATOMS
18
ITEM: BOX BOUNDS xy xz yz pp pp pp
-2.8050999999999999e+00 5.6101999999999999e+00 -2.8050999999999999e+00
0.0000000000000000e+00 4.8585757200000002e+00 0.0000000000000000e+00
0.0000000000000000e+00 1.8870999999999999e+01 0.0000000000000000e+00
ITEM: ATOMS id type element x y z fx fy fz vx vy vz
14 3 Pt 0.172408 3.1666 4.66126 -0.592148 -0.596653 0.0268312 -0.283088 -1.15502 -1.19811
17 3 Pt -2.58891 4.60467 6.82243 -0.61385 -0.257443 0.541852 -0.454898 0.868996 1.6961
3 3 Pt 0 0 0 0 0 0 0 0 0
4 3 Pt 1.40255 2.42928 0 0 0 0 0 0 0
6 3 Pt 2.80509 0 0 0 0 0 0 0 0
8 3 Pt 3e-05 1.6195 2.29038 0 0 0 0 0 0
10 3 Pt -1.40252 4.04879 2.29038 0 0 0 0 0 0
13 3 Pt 1.50666 0.593552 4.64064 0.547418 0.64857 -0.456313 0.532919 -0.00562002 1.18938
18 3 Pt 0.110349 4.56445 7.23327 0.330874 0.297104 0.440251 0.265313 -0.641316 0.620969
16 3 Pt 1.54752 2.17567 6.9051 0.158016 0.230116 -0.132034 -1.41027 -0.668768 0.716708
5 3 Pt 4.20765 2.42928 0 0 0 0 0 0 0
7 3 Pt 2.80512 1.6195 2.29038 0 0 0 0 0 0
9 3 Pt 1.40257 4.04879 2.29038 0 0 0 0 0 0
11 3 Pt 2.89657 3.05883 4.51476 0.448773 -0.386623 0.492146 0.841281 -1.75543 0.696529
12 3 Pt 4.3761 0.602218 4.65327 -0.569384 0.832627 -0.288016 -0.462076 -0.152709 1.09277
1 1 C 0.214739 4.77855 9.10664 0.871342 -0.518929 0.793408 4.07606 -1.79293 -5.79904
2 2 O 0.508609 4.76258 10.2434 -0.711485 0.236417 -1.48918 -0.796372 1.9597 -1.65211
15 3 Pt 4.35094 2.14586 6.89802 -0.0774123 0.0479945 -0.168534 0.57561 1.46159 0.526592
ITEM: TIMESTEP
800
ITEM: NUMBER OF ATOMS
18
ITEM: BOX BOUNDS xy xz yz pp pp pp
-2.8050999999999999e+00 5.6101999999999999e+00 -2.8050999999999999e+00
0.0000000000000000e+00 4.8585757200000002e+00 0.0000000000000000e+00
0.0000000000000000e+00 1.8870999999999999e+01 0.0000000000000000e+00
ITEM: ATOMS id type element x y z fx fy fz vx vy vz
14 3 Pt 0.0978096 3.00051 4.56084 0.510678 0.657535 0.488202 -0.145271 -1.00868 -0.390577
15 3 Pt -1.27251 2.27341 6.93773 0.0503271 -0.24868 0.174941 -0.758625 0.837774 0.665997
3 3 Pt 0 0 0 0 0 0 0 0 0
4 3 Pt 1.40255 2.42928 0 0 0 0 0 0 0
6 3 Pt 2.80509 0 0 0 0 0 0 0 0
8 3 Pt 3e-05 1.6195 2.29038 0 0 0 0 0 0
10 3 Pt -1.40252 4.04879 2.29038 0 0 0 0 0 0
13 3 Pt 1.58531 0.625895 4.6776 -0.583957 -0.456551 -0.112302 -0.0938102 -0.418826 -0.16305
16 3 Pt 1.49956 2.14194 6.95233 0.12165 0.0136816 -0.0946699 0.428285 -0.107232 0.271035
5 3 Pt 4.20765 2.42928 0 0 0 0 0 0 0
7 3 Pt 2.80512 1.6195 2.29038 0 0 0 0 0 0
9 3 Pt 1.40257 4.04879 2.29038 0 0 0 0 0 0
11 3 Pt 2.98656 2.97688 4.69349 -0.722468 1.03108 -0.408103 -0.19439 1.67997 2.15243
12 3 Pt 4.29833 0.610579 4.68988 0.493157 -0.689899 -0.216082 -0.0378986 -1.29306 -0.309088
1 1 C 0.256576 4.79201 8.97726 0.534524 -0.210161 2.13672 7.03309 -5.25476 0.855419
2 2 O 0.453494 4.82973 10.1262 -0.386531 0.145928 -0.518115 -5.13201 1.70495 -0.845882
17 3 Pt 2.8898 4.62361 7.03274 0.55184 0.0481659 -0.561913 -1.31903 -0.249663 1.53302
18 3 Pt 0.215988 4.57949 7.20568 -0.710455 0.278261 -1.68003 0.872777 1.37646 -0.967403
ITEM: TIMESTEP
850
ITEM: NUMBER OF ATOMS
18
ITEM: BOX BOUNDS xy xz yz pp pp pp
-2.8050999999999999e+00 5.6101999999999999e+00 -2.8050999999999999e+00
0.0000000000000000e+00 4.8585757200000002e+00 0.0000000000000000e+00
0.0000000000000000e+00 1.8870999999999999e+01 0.0000000000000000e+00
ITEM: ATOMS id type element x y z fx fy fz vx vy vz
14 3 Pt 0.127722 3.00815 4.65446 -0.477677 -0.0076712 0.0261085 -0.222222 0.55705 2.01947
15 3 Pt -1.28202 2.30084 7.00702 0.213106 -0.221833 -0.441741 0.868993 -0.324919 0.0952897
3 3 Pt 0 0 0 0 0 0 0 0 0
4 3 Pt 1.40255 2.42928 0 0 0 0 0 0 0
6 3 Pt 2.80509 0 0 0 0 0 0 0 0
8 3 Pt 3e-05 1.6195 2.29038 0 0 0 0 0 0
10 3 Pt -1.40252 4.04879 2.29038 0 0 0 0 0 0
13 3 Pt 1.51926 0.562349 4.64106 0.363224 0.63983 -0.104743 -0.297114 0.249005 -0.683617
16 3 Pt 1.51292 2.13514 6.95417 -0.239801 0.661932 -0.0721124 -0.660855 0.817737 -0.245606
2 2 O 0.114244 4.65404 10.1415 -0.052992 0.086988 -0.199948 -8.48025 0.14047 1.41222
17 3 Pt -2.68488 4.65477 7.08761 -0.150602 0.0553451 -0.364419 1.29404 0.927771 -0.287158
5 3 Pt 4.20765 2.42928 0 0 0 0 0 0 0
7 3 Pt 2.80512 1.6195 2.29038 0 0 0 0 0 0
9 3 Pt 1.40257 4.04879 2.29038 0 0 0 0 0 0
11 3 Pt 2.88107 3.16839 4.75497 0.567903 -1.5342 -0.578496 -0.657867 -0.491276 -1.18641
12 3 Pt 4.31574 0.51811 4.63362 -0.571012 1.51874 0.222932 -0.738949 1.79454 -0.410286
1 1 C 0.112869 4.70836 8.98544 0.144756 -0.165456 -0.535811 7.80093 -9.41679 7.11581
18 3 Pt 0.161195 4.73416 7.09225 0.114841 -0.504083 0.991289 -1.6526 1.12969 -1.45527
ITEM: TIMESTEP
900
ITEM: NUMBER OF ATOMS
18
ITEM: BOX BOUNDS xy xz yz pp pp pp
-2.8050999999999999e+00 5.6101999999999999e+00 -2.8050999999999999e+00
0.0000000000000000e+00 4.8585757200000002e+00 0.0000000000000000e+00
0.0000000000000000e+00 1.8870999999999999e+01 0.0000000000000000e+00
ITEM: ATOMS id type element x y z fx fy fz vx vy vz
14 3 Pt 0.055614 3.12783 4.73764 0.337326 0.496825 -0.906199 -0.324419 2.34667 -1.29343
15 3 Pt -1.24389 2.22467 6.95439 -0.465053 0.241089 0.115295 -0.739652 -0.773106 -0.538768
3 3 Pt 0 0 0 0 0 0 0 0 0
4 3 Pt 1.40255 2.42928 0 0 0 0 0 0 0
6 3 Pt 2.80509 0 0 0 0 0 0 0 0
8 3 Pt 3e-05 1.6195 2.29038 0 0 0 0 0 0
10 3 Pt -1.40252 4.04879 2.29038 0 0 0 0 0 0
13 3 Pt 1.47838 0.671376 4.57401 -0.522077 -0.148451 0.316908 -1.4272 1.07393 -0.271698
1 1 C -0.0235208 4.53617 8.96656 -0.00822743 0.385048 -1.83637 7.91467 -8.83663 -1.80455
2 2 O -0.233008 4.42519 10.0867 -0.00264468 -0.131045 1.14927 -4.75303 3.39222 -6.85176
17 3 Pt -2.64922 4.70948 6.92383 -0.152787 -0.150664 -0.496447 -0.807074 -0.110139 -3.01592
5 3 Pt 4.20765 2.42928 0 0 0 0 0 0 0
7 3 Pt 2.80512 1.6195 2.29038 0 0 0 0 0 0
9 3 Pt 1.40257 4.04879 2.29038 0 0 0 0 0 0
11 3 Pt 2.86865 3.02647 4.56016 -0.466371 1.68244 0.403649 -0.580369 0.770203 -1.72637
12 3 Pt 4.22422 0.799943 4.62888 0.653527 -1.57304 -0.102551 0.150857 0.707692 0.0381175
18 3 Pt 0.101915 4.74536 7.08276 0.0358444 -0.0113019 0.938314 0.0104083 -0.101195 1.29734
16 3 Pt 1.49153 2.35145 6.92768 0.514899 -0.378681 -0.103415 0.889231 2.67455 -0.272783
ITEM: TIMESTEP
950
ITEM: NUMBER OF ATOMS
18
ITEM: BOX BOUNDS xy xz yz pp pp pp
-2.8050999999999999e+00 5.6101999999999999e+00 -2.8050999999999999e+00
0.0000000000000000e+00 4.8585757200000002e+00 0.0000000000000000e+00
0.0000000000000000e+00 1.8870999999999999e+01 0.0000000000000000e+00
ITEM: ATOMS id type element x y z fx fy fz vx vy vz
14 3 Pt 0.0265972 3.32567 4.54446 -0.477232 -0.793369 0.653455 -1.05267 0.458743 -1.13502
17 3 Pt -2.68795 4.73226 6.69427 0.0315517 0.418716 1.24253 0.0311945 1.02455 0.105567
3 3 Pt 0 0 0 0 0 0 0 0 0
4 3 Pt 1.40255 2.42928 0 0 0 0 0 0 0
6 3 Pt 2.80509 0 0 0 0 0 0 0 0
8 3 Pt 3e-05 1.6195 2.29038 0 0 0 0 0 0
10 3 Pt -1.40252 4.04879 2.29038 0 0 0 0 0 0
13 3 Pt 1.37816 0.816535 4.58009 0.792494 0.396812 -0.31379 0.694142 2.45563 -0.29426
1 1 C -0.0380368 4.55084 8.94804 -0.143377 0.351615 -0.751124 7.01925 -4.58897 0.174024
2 2 O -0.288299 4.55135 10.0612 -0.121436 -0.23328 2.13586 -2.47642 4.75314 2.89089
18 3 Pt 0.0580126 4.74599 7.1649 0.234029 -0.120749 -1.60478 -1.14678 0.0309415 0.235372
5 3 Pt 4.20765 2.42928 0 0 0 0 0 0 0