ITEM: TIMESTEP
0
ITEM: NUMBER OF ATOMS
336
ITEM: BOX BOUNDS xy xz yz pp pp pp
-5.9807006299141401e+00 1.1961401259828300e+01 -5.9807006299141401e+00
0.0000000000000000e+00 1.0358877355870501e+01 0.0000000000000000e+00
0.0000000000000000e+00 4.8578864614561297e+01 0.0000000000000000e+00
ITEM: ATOMS id type element x y z fx fy fz vx vy vz
1 2 O 0.730642 1.42895 1.34122 0 0 0 0 0 0
2 2 O 3.50569 1.42895 1.34122 0 0 0 0 0 0
5 2 O 2.11816 3.83221 1.34122 0 0 0 0 0 0
7 2 O -2.25971 6.60839 1.34122 0 0 0 0 0 0
8 2 O 0.515337 6.60839 1.34122 0 0 0 0 0 0
11 2 O -0.872186 9.01165 1.34122 0 0 0 0 0 0
13 2 O -0.872186 3.95652 1.36109 0 0 0 0 0 0
15 2 O -3.86254 9.13595 1.36109 0 0 0 0 0 0
17 2 O 2.11816 2.23004 3.50917 0 0 0 0 0 0
19 2 O -0.872186 7.40947 3.50917 0 0 0 0 0 0
21 2 O -0.872186 2.35434 3.52904 0 0 0 0 0 0
23 2 O -2.25971 4.7576 3.52904 0 0 0 0 0 0
24 2 O 0.515337 4.7576 3.52904 0 0 0 0 0 0
27 2 O -3.86254 7.53378 3.52904 0 0 0 0 0 0
29 2 O -5.25006 9.93704 3.52904 0 0 0 0 0 0
30 2 O -2.47501 9.93704 3.52904 0 0 0 0 0 0
33 2 O 2.11816 0.37925 6.21149 0 0 0 0 0 0
35 2 O 0.515337 3.15543 6.21149 0 0 0 0 0 0
36 2 O 3.72099 3.15543 6.21149 0 0 0 0 0 0
39 2 O -0.872186 5.55869 6.21149 0 0 0 0 0 0
41 2 O -2.47501 8.33487 6.21149 0 0 0 0 0 0
42 2 O 0.730642 8.33487 6.21149 0 0 0 0 0 0
45 2 O 5.10851 0.503557 6.23136 0 0 0 0 0 0
47 2 O 2.11816 5.683 6.23136 0 0 0 0 0 0
49 2 O -0.996867 3.93114 8.3985 1.09931 0.167453 -0.242277 -3.29199 -0.846889 -0.343917
51 2 O -3.74009 9.01948 8.38221 -0.893654 1.08252 0.224733 3.46553 0.336717 3.44017
53 2 O 0.502046 1.34416 8.35562 0.767866 -0.0281903 0.223737 -2.68582 -2.59665 -4.50079
54 2 O 3.72816 1.37477 8.37871 -0.321554 -0.461241 0.202181 4.68213 3.16415 -3.94731
57 2 O 1.99066 4.08573 8.30878 1.55608 -0.370235 1.12169 2.72136 -0.114669 -0.646489
59 2 O -2.3777 6.39849 8.36322 -0.280755 1.18949 0.372889 7.75403 0.678817 -1.90388
60 2 O 0.804274 6.53581 8.42862 -0.826759 -0.317863 0.097431 0.347631 -2.36309 4.73324
63 2 O -0.833453 9.30089 8.39783 -0.327259 -0.194771 0.166339 6.43993 10.736 0.265317
65 2 O -0.757715 2.2239 11.0642 -0.563775 -0.66292 -0.427443 0.607028 1.38639 -10.0004
67 2 O -2.39115 5.01589 11.0913 0.127345 -0.592483 0.129377 -1.52478 6.96653 0.237311
68 2 O 0.91776 4.93807 11.0708 -0.758282 0.362261 0.0664827 2.28622 -7.68489 1.93875
71 2 O -3.77056 7.27434 11.1767 0.0981595 0.60731 -0.323572 6.78812 2.98781 6.99086
73 2 O -5.29301 10.1709 10.981 -0.492007 -0.547914 0.164297 -4.148 7.03735 3.50226
74 2 O -2.18183 10.1366 11.1143 -0.58033 -0.187872 0.841992 5.0935 -3.03955 -2.84723
77 2 O 2.26795 2.39056 11.0989 -0.540662 -0.678328 0.459825 0.640305 -2.13914 -2.81594
79 2 O -0.933616 7.54162 11.2529 1.03314 -0.30025 -0.755757 3.07782 -1.79859 -0.589368
81 2 O 5.19713 0.697466 13.3611 -0.174089 -0.787788 -0.545514 0.19829 -4.54308 -1.58672
83 2 O 2.18372 5.85886 13.2268 0.32406 -1.08539 1.07239 -0.115955 -2.91397 2.13569
85 2 O 2.05538 0.690621 13.3002 0.802618 0.321426 -0.203838 0.997257 4.40388 0.662744
87 2 O 0.752829 3.15238 13.1665 -0.105604 -0.53425 0.688345 2.01916 1.05917 -6.81986
88 2 O 3.48039 3.167 13.3049 0.431495 -0.174193 0.452527 -1.47856 9.52618 3.65288
91 2 O -0.857715 5.7728 13.2161 0.679593 0.660778 0.73482 -3.35541 7.58848 3.8492
93 2 O -2.22356 8.30148 13.3624 0.543036 -0.498416 0.0308663 7.87348 -2.94867 -7.23674
94 2 O 0.655956 8.37522 13.2925 -0.916934 -1.09553 0.272585 1.97442 5.76051 0.0428263
97 2 O 0.83487 1.29747 15.8975 -0.607183 0.399563 0.60046 1.3353 0.534188 -7.62245
98 2 O 3.61832 1.4566 16.0461 -0.490706 -0.64836 0.142333 -1.46995 0.8124 1.22555
101 2 O 2.11406 3.75929 16.0184 0.0830712 0.622326 -0.46915 9.19795 3.87933 4.54912
103 2 O -2.2391 6.52376 15.9102 0.606554 -0.193779 0.129838 1.82426 0.499351 6.21455
104 2 O 0.590071 6.44912 16.042 -0.105342 0.29832 -0.615018 -9.02151 3.5618 -14.5515
107 2 O -0.828601 8.91098 16.0365 0.5726 -0.241218 -0.563427 -1.76413 2.85834 -5.49322
109 2 O -0.783115 3.93164 15.9019 -0.815823 -0.448427 1.5575 -6.63822 2.96019 -0.546918
111 2 O -3.77539 9.01994 15.9227 -0.446026 0.586024 1.53961 -2.65809 -0.812499 -0.0297568
113 2 O 2.15332 2.1287 18.1551 -0.437597 0.459513 0.12359 -7.68596 -1.44941 4.03974
115 2 O -0.790117 7.23113 18.1112 -0.111391 1.13403 0.403661 -1.25115 3.30134 2.64543
117 2 O -0.83524 2.26985 18.0929 -0.249842 -0.368499 0.54132 -0.883826 2.91805 -0.583003
119 2 O -2.30018 4.66151 18.1584 0.708034 -0.348861 -0.306719 1.57261 3.35906 3.66222
120 2 O 0.468798 4.66442 18.1797 -0.287202 -0.117831 0.213944 -5.05392 0.721861 -3.25458
123 2 O -3.83357 7.37762 18.0307 -0.21668 0.991238 0.144291 6.41934 1.93216 4.61594
125 2 O -5.19943 9.91462 18.1706 -0.0747248 -0.676876 0.0317539 2.81371 -3.65527 3.57494
126 2 O -2.45016 9.85847 18.1395 0.342078 -0.387378 0.204377 -2.78982 -3.81333 -3.60096
129 2 O 1.95642 0.301712 20.8226 1.12554 0.711342 -0.951535 -0.23577 2.75028 6.70269
131 2 O 0.492327 3.03886 20.938 -0.947677 0.901661 0.296522 0.752649 -5.07477 4.71119
132 2 O 3.67609 3.15901 20.7866 -0.219876 -0.188597 -0.134887 3.60899 6.46811 6.00149
135 2 O -0.826352 5.49682 20.8872 -0.954919 0.483747 -0.234413 -9.19412 -5.34558 -6.85014
137 2 O -2.44995 8.28879 20.7412 0.523435 -0.384879 1.08541 -2.67941 4.72044 -2.46999
138 2 O 0.722181 8.41787 20.9433 -0.592509 -1.37544 -1.00976 -2.5368 1.13412 7.69705
141 2 O 5.08206 0.433765 20.8071 -0.0662547 0.298225 0.355169 -0.278707 0.868849 -3.86514
143 2 O 1.9686 5.7975 20.7994 0.805356 -0.622663 0.83686 -0.111407 -0.859203 8.53361
145 2 O -0.868128 3.97696 23.0941 -0.198611 -0.303229 0.0711352 3.02062 -3.86564 -0.381391
147 2 O -3.83585 9.15997 22.9436 -0.892556 -0.848368 0.535989 0.508665 -5.80937 5.65035
149 2 O 0.460591 1.07117 23.0599 0.170133 1.60745 1.00591 0.154283 -4.19955 2.63206
150 2 O 3.62392 1.28121 22.8396 -0.599458 0.39324 0.958929 3.7984 2.09495 -8.85523
153 2 O 2.24543 4.04972 22.9116 -1.13339 -0.147623 1.04685 -2.40416 -2.88258 -2.83
155 2 O -2.50633 6.35336 23.0919 0.554562 0.741021 -0.386492 3.01745 -3.42034 3.73858
156 2 O 0.853849 6.50583 23.1132 -1.09332 -0.589603 0.685315 -5.72012 1.87106 4.35514
159 2 O -1.01302 9.29893 23.1245 0.369125 -0.703374 -0.803563 -5.49942 2.52948 8.83845
161 2 O -1.06645 2.23745 26.0811 0.810415 -1.28183 -0.385624 0.705219 1.21446 -4.53297
163 2 O -2.53712 4.75867 25.8731 0.128708 0.156027 0.0355597 -3.02722 -3.92272 -1.24307
164 2 O 0.748161 4.8193 25.8581 -0.274607 0.548885 -0.246968 6.31819 2.68432 -1.7368
167 2 O -3.81063 7.17253 25.6664 -0.87629 0.397366 0.870126 1.68243 0.348139 -0.637868
169 2 O -5.42296 10.1506 25.8751 -0.712766 -0.720805 -0.145968 -4.86907 4.76321 3.20452
170 2 O -2.43015 10.1001 25.7081 0.167335 -0.388949 0.242577 -2.39003 6.91044 4.67547
173 2 O 2.12959 2.21015 25.8143 -0.864867 0.597098 0.122879 5.75565 -2.11374 4.01221
175 2 O -0.996256 7.38954 25.8158 0.601585 -0.469454 -0.645417 -1.38695 0.740168 6.22106
177 2 O 4.99885 0.392225 27.706 -0.769196 0.222925 1.65581 1.94785 -3.32128 -0.598076
179 2 O 2.00521 5.76328 27.8013 0.483879 -0.625555 1.49147 -7.00341 -7.31701 -4.68959
181 2 O 2.06972 0.71598 27.9368 0.499619 -0.160724 0.822729 -1.28484 1.54086 -0.493474
183 2 O 0.710445 3.16269 28.0819 0.216718 -0.415577 -0.605967 0.973225 -9.79419 -3.1478
184 2 O 3.50234 2.97963 27.8648 -0.359662 0.067519 0.412114 1.76506 -0.77535 -6.40762
187 2 O -1.11782 5.923 27.9904 1.22084 -0.6824 -0.0587459 -9.93346 -2.29938 -1.74751
189 2 O -2.40438 8.10258 27.7553 -0.394737 0.741468 0.682897 -2.04662 0.667992 2.70191
190 2 O 0.329332 8.14951 27.9372 -0.584466 0.950489 0.667081 -4.394 -7.5429 1.54413
193 1 Cr 2.11816 0.503557 2.43513 0 0 0 0 0 0
195 1 Cr 0.622989 3.09328 2.43513 0 0 0 0 0 0
196 1 Cr 3.61334 3.09328 2.43513 0 0 0 0 0 0
199 1 Cr -0.872186 5.683 2.43513 0 0 0 0 0 0
201 1 Cr -2.36736 8.27271 2.43513 0 0 0 0 0 0
202 1 Cr 0.622989 8.27271 2.43513 0 0 0 0 0 0
205 1 Cr -0.872186 2.23004 7.3054 0 0 0 0 0 0
207 1 Cr -2.36736 4.81976 7.3054 0 0 0 0 0 0
208 1 Cr 0.622989 4.81976 7.3054 0 0 0 0 0 0
211 1 Cr -3.86254 7.40947 7.3054 0 0 0 0 0 0
213 1 Cr -5.35771 9.99919 7.3054 0 0 0 0 0 0
214 1 Cr -2.36736 9.99919 7.3054 0 0 0 0 0 0
217 1 Cr 0.684217 1.41062 12.0852 0.910833 1.33333 0.612642 3.01653 1.84595 2.93743
218 1 Cr 3.66265 1.41487 12.281 -0.585267 0.660464 -0.579476 2.61336 -3.40122 -1.41427
221 1 Cr 2.13738 4.02358 12.2363 0.929606 0.845778 -1.00137 1.23244 4.36909 -2.53701
223 1 Cr -2.28495 6.57051 12.2855 -0.723161 0.59568 -0.288955 0.501057 -0.175541 -2.2993
224 1 Cr 0.731727 6.66949 12.2488 -1.4608 -0.0368651 -1.02021 -0.43942 -0.845462 -2.48637
227 1 Cr -0.76564 9.2394 12.3432 -1.29124 0.156908 -1.13599 1.91499 0.800027 -1.45765
229 1 Cr 2.16837 0.403763 17.1741 0.277602 1.00037 -2.09105 -4.51762 0.95074 -2.95272
231 1 Cr 0.584376 3.08283 17.0479 1.3371 -1.3659 0.0614744 1.82001 -3.13479 0.305056
232 1 Cr 3.59727 3.08675 17.1209 -0.265919 -0.680308 -0.54035 4.20333 -1.61275 -0.356382
235 1 Cr -0.880885 5.60404 17.0671 -0.175823 -1.07924 -0.0232353 0.149743 3.80391 -0.172521
237 1 Cr -2.29439 8.13842 16.9815 -1.49663 0.355163 1.12864 -0.0973184 -0.681878 0.935922
238 1 Cr 0.712537 8.13363 17.0326 -0.025904 0.873419 0.368432 -3.79517 -0.135594 0.985961
241 1 Cr -0.954042 2.18507 22.099 0.647444 0.419566 -0.76475 3.50736 -1.35908 4.4885
243 1 Cr -2.44326 4.81129 21.8738 1.02841 -0.307318 2.19891 1.953 -2.34103 4.14813
244 1 Cr 0.61206 4.8186 21.959 0.808365 -0.651386 0.283819 -1.58803 1.24591 5.93512
247 1 Cr -3.81029 7.40282 21.9524 0.148286 -0.63123 -0.278972 1.62041 -4.36727 3.83258
249 1 Cr -5.37362 9.93097 21.8708 -1.66338 -0.408241 0.916758 -3.84514 -4.44342 -1.34971
250 1 Cr -2.47833 9.97912 21.8449 1.67942 0.557974 0.241719 2.1557 2.75536 4.38961
253 1 Cr 0.597252 1.43025 27.0381 -0.85967 0.727231 -0.637244 3.76905 2.95876 3.15733
254 1 Cr 3.52634 1.33638 26.8926 0.15752 0.749736 -0.518548 -0.107041 0.985722 2.33325
257 1 Cr 2.08651 3.95746 27.016 -0.354107 -0.0116894 -0.679445 -2.79849 -0.735054 3.38677
259 1 Cr -2.4286 6.4635 26.8824 0.131895 0.502925 -0.539585 5.11981 1.06796 4.02597
260 1 Cr 0.528002 6.64449 26.9553 -0.477798 -2.26994 -0.970267 -3.18546 0.168926 0.924268
263 1 Cr -1.04973 9.06919 26.8483 0.33013 0.172968 -0.633682 0.149832 -3.2829 2.70889
265 3 Zn 2.11816 2.23004 0 0 0 0 0 0 0
267 3 Zn -0.872186 7.40947 0 0 0 0 0 0 0
269 3 Zn 5.10851 0.503557 0.642729 0 0 0 0 0 0
271 3 Zn 2.11816 5.683 0.642729 0 0 0 0 0 0
273 3 Zn 5.10851 0.503557 4.22754 0 0 0 0 0 0
275 3 Zn 2.11816 5.683 4.22754 0 0 0 0 0 0
277 3 Zn -0.872186 3.95652 4.87027 0 0 0 0 0 0
279 3 Zn -3.86254 9.13595 4.87027 0 0 0 0 0 0
281 3 Zn 2.11816 2.23004 5.51299 0 0 0 0 0 0
283 3 Zn -0.872186 7.40947 5.51299 0 0 0 0 0 0
285 3 Zn 2.10264 2.25243 9.15469 0.0666241 0.121507 -0.471014 -0.125531 -3.20507 2.44089
287 3 Zn -0.87591 7.46619 9.12052 0.264707 -0.139919 0.228811 -3.50246 2.45786 4.54358
289 3 Zn 4.98722 0.564203 9.76945 0.704959 0.0707266 -0.406313 2.55607 -3.86765 -1.27283
291 3 Zn 2.24055 5.79691 9.78032 -0.265309 0.0115873 -0.00131621 1.0484 2.83378 1.24325
293 3 Zn -0.772299 4.06045 10.3641 0.00363173 0.188166 0.334565 -1.97026 -2.26969 -2.53498
295 3 Zn -3.76845 9.09652 10.3542 0.426111 -0.0765061 0.518794 -2.1965 -2.39196 0.31765
297 3 Zn -0.848527 3.94668 14.0437 -0.0827209 0.172952 -1.32599 -2.47521 1.68081 -0.203317
299 3 Zn -3.90693 9.18395 14.0199 0.363923 0.0964922 -0.551228 3.75525 -3.77218 1.4859
301 3 Zn 2.07492 2.29094 14.6401 0.418155 -0.63638 -0.0539838 -3.66498 1.79548 -2.0234
303 3 Zn -0.776457 7.31657 14.7109 -0.113712 0.107675 -0.819424 0.368617 1.90476 -3.6295
305 3 Zn 5.22193 0.304898 15.3398 -0.542308 1.38047 -0.13348 3.05395 -4.79731 -3.01897
307 3 Zn 2.19884 5.65532 15.2552 -0.325418 -0.431732 0.031782 2.48414 -2.2727 0.679902
309 3 Zn 5.16526 0.469602 18.8123 -0.417115 0.160971 0.106088 1.17584 -2.29271 3.4709
311 3 Zn 2.01104 5.65523 18.8178 0.467355 0.301229 0.063244 -5.48823 3.4941 3.2023
313 3 Zn -0.965213 3.87276 19.5805 0.463604 -0.129755 -0.7146 0.991214 0.313064 -0.744126
315 3 Zn -3.73261 8.95235 19.5023 -0.926453 0.206016 -1.33852 -2.27944 -2.76192 -0.416993
317 3 Zn 2.01616 2.22637 20.1565 0.449709 -0.333991 -0.161289 1.3347 3.96052 -1.10913
319 3 Zn -0.821895 7.34062 20.1201 0.0971253 -0.00125929 0.126571 0.509858 1.1259 0.335521
321 3 Zn 1.95988 2.25892 23.7915 0.446577 -0.333023 -0.367602 0.657811 -1.04743 2.38646
323 3 Zn -0.817489 7.39392 23.687 -0.677109 -0.147792 0.362323 -4.43904 0.6501 1.03666
325 3 Zn 4.97173 0.498959 24.4015 -0.228461 0.11428 0.436556 0.702315 0.882287 4.43768
327 3 Zn 2.25742 5.70732 24.4416 -0.199339 -0.218681 0.285926 -0.393024 -1.29917 1.99397
329 3 Zn -0.858528 3.88609 25.1518 -0.0454028 0.773864 -1.00087 -0.277421 4.14814 -3.00245
331 3 Zn -4.0483 9.04229 24.9403 0.541015 0.213481 -0.0782627 0.610252 -0.709884 1.63094
333 3 Zn -0.986205 4.0365 28.0464 0.705452 -0.108553 0.331113 -1.21452 0.0217887 -9.1037
335 3 Zn -3.91043 9.24057 27.8093 -0.68451 -1.02427 0.465745 1.71029 -0.131002 -9.95068
3 2 O 6.71134 1.42895 1.34122 0 0 0 0 0 0
4 2 O 9.48639 1.42895 1.34122 0 0 0 0 0 0
6 2 O 8.09887 3.83221 1.34122 0 0 0 0 0 0
9 2 O 3.72099 6.60839 1.34122 0 0 0 0 0 0
10 2 O 6.49604 6.60839 1.34122 0 0 0 0 0 0
12 2 O 5.10851 9.01165 1.34122 0 0 0 0 0 0
14 2 O 5.10851 3.95652 1.36109 0 0 0 0 0 0
16 2 O 2.11816 9.13595 1.36109 0 0 0 0 0 0
18 2 O 8.09887 2.23004 3.50917 0 0 0 0 0 0
20 2 O 5.10851 7.40947 3.50917 0 0 0 0 0 0
22 2 O 5.10851 2.35434 3.52904 0 0 0 0 0 0
25 2 O 3.72099 4.7576 3.52904 0 0 0 0 0 0
26 2 O 6.49604 4.7576 3.52904 0 0 0 0 0 0
28 2 O 2.11816 7.53378 3.52904 0 0 0 0 0 0
31 2 O 0.730642 9.93704 3.52904 0 0 0 0 0 0
32 2 O 3.50569 9.93704 3.52904 0 0 0 0 0 0
34 2 O 8.09887 0.37925 6.21149 0 0 0 0 0 0
37 2 O 6.49604 3.15543 6.21149 0 0 0 0 0 0
38 2 O 9.70169 3.15543 6.21149 0 0 0 0 0 0
40 2 O 5.10851 5.55869 6.21149 0 0 0 0 0 0
43 2 O 3.50569 8.33487 6.21149 0 0 0 0 0 0
44 2 O 6.71134 8.33487 6.21149 0 0 0 0 0 0
46 2 O 11.0892 0.503557 6.23136 0 0 0 0 0 0
48 2 O 8.09887 5.683 6.23136 0 0 0 0 0 0
50 2 O 5.17628 3.87858 8.30661 -0.719653 1.15469 1.27221 -2.55473 3.13121 0.702653
52 2 O 2.14983 9.30509 8.41936 -0.473069 -1.27835 -0.778274 -0.623479 0.828362 0.725095
55 2 O 6.51117 1.28253 8.42315 -0.557514 0.12577 -0.40083 6.8663 4.04334 -2.02427
56 2 O 9.7166 1.2573 8.42402 0.451493 0.378988 -0.37486 -2.09162 4.74795 4.21824
58 2 O 8.01617 4.16866 8.40228 0.982591 -1.32518 0.123615 0.688983 5.12255 -6.39413
61 2 O 3.48063 6.58348 8.40984 0.640957 -0.836012 0.0233812 0.732774 0.343342 -3.67055
62 2 O 6.79612 6.46179 8.41193 -0.489638 0.195613 0.0685702 4.39215 2.52115 4.38007
64 2 O 5.07436 9.33262 8.49537 0.596648 -0.744812 -0.947191 4.80103 5.44435 5.43022
66 2 O 5.1193 2.23905 11.0865 -0.297987 -0.640873 0.208908 2.83446 6.31389 0.0617096
69 2 O 3.63168 5.05456 11.176 -0.255999 -1.22049 -0.565748 -5.03055 0.836558 -3.25187
70 2 O 6.76495 5.02843 11.03 -0.122043 -0.515195 0.169997 -3.86545 -2.21853 -6.7822
72 2 O 2.07133 7.43011 11.0988 0.896006 -0.445035 0.141596 -0.458443 -1.76504 -0.270988
75 2 O 0.448272 10.1056 11.0333 -0.225561 0.908885 0.961927 4.32179 0.0384224 9.92293
76 2 O 3.77929 10.0083 11.013 -0.164014 1.16293 0.0454444 1.88539 1.95777 7.40509
78 2 O 8.08737 2.31245 11.0359 0.245264 -0.384884 -0.26622 6.83368 -1.29118 6.16285
80 2 O 5.1545 7.44604 11.0606 0.536022 0.39198 0.418942 2.28947 5.38201 -1.67022
82 2 O 11.1461 0.520912 13.0795 -0.0166802 1.30881 1.46308 3.77325 1.34314 -4.99624
84 2 O 8.15647 5.71984 13.2652 -0.172127 -0.237952 -0.0344574 6.17294 1.06485 3.35338
86 2 O 8.11699 0.716534 13.1939 -0.00723208 0.213655 -0.227392 -5.06928 -8.1069 -3.65316
89 2 O 6.78126 3.17227 13.1829 -1.04098 -0.516961 0.886322 -2.32008 3.23204 3.23003
90 2 O 9.60046 3.04771 13.1933 -1.07141 -0.0860327 -0.0405693 2.31325 6.55475 3.61885
92 2 O 5.28108 5.97479 13.2886 -1.03477 -1.02791 0.375767 8.52562 3.45482 3.33442
95 2 O 3.85431 8.39875 13.2337 -0.958182 0.00638724 -0.348903 -0.361369 3.71041 -3.22335
96 2 O 6.43899 8.4565 13.2196 0.531182 -1.08346 -0.22263 -1.45594 3.12106 1.16288
99 2 O 6.74018 1.47801 15.9008 -0.866636 -0.562422 0.251729 0.797551 5.10868 -6.99008
100 2 O 9.35698 1.333 15.8376 1.30451 0.5087 0.177032 3.32946 3.86067 -1.88609
102 2 O 8.05971 3.81727 15.9943 0.470037 -0.45274 -0.387427 3.24586 -4.05759 3.08319
105 2 O 3.83293 6.4895 15.816 -0.40435 1.17067 0.101084 -2.58471 2.89075 -5.45407
106 2 O 6.54812 6.58664 15.9053 -0.708243 0.41335 0.0437535 1.89879 -2.67141 7.44939
108 2 O 5.02243 9.04971 15.968 1.36933 0.387311 -0.979162 -4.15079 5.37734 -7.96517
110 2 O 5.00698 3.91683 15.9674 0.830743 -0.345215 -0.683179 -0.467549 0.495084 -4.20687
112 2 O 2.1104 9.10906 15.9219 0.118972 -0.00434775 0.50142 -5.57642 -3.43326 1.99508
114 2 O 8.09679 2.31071 18.1124 -0.219809 -1.19228 -0.00512527 1.23088 -1.99763 -0.812374
116 2 O 5.08802 7.39218 18.0648 0.236297 -0.0265901 -0.471053 0.140219 -1.641 -2.60626
118 2 O 5.07288 2.37333 18.1915 0.0873218 -0.0309599 -0.241713 5.93085 2.40074 0.449201
121 2 O 3.62695 4.82241 18.0053 0.773653 -0.600942 0.443404 5.73692 -3.43199 -2.24218
122 2 O 6.47069 4.68612 18.0958 -0.564444 0.619435 -0.140267 -11.3363 5.06806 -2.23867
124 2 O 2.28048 7.50979 18.0972 -0.896961 0.182418 0.234936 0.57653 -4.40833 -0.447289
127 2 O 0.75164 10.0089 18.0201 -0.229113 -1.26691 0.970482 2.17852 -1.14737 3.36602
128 2 O 3.56742 9.92831 17.9764 -0.414426 0.431104 0.987773 0.826635 3.58191 -5.42045
130 2 O 8.09379 0.37572 20.8417 -0.370027 -0.245606 0.438398 -6.04073 -3.36658 -1.65379
133 2 O 6.42092 3.25322 20.7064 -0.143754 -0.254103 1.26234 -3.27399 -2.78223 4.54482
134 2 O 9.61184 3.19329 20.9099 0.391106 -0.794624 -0.0373583 -1.60767 -6.11048 9.44797
136 2 O 5.1239 5.64589 20.7593 -0.141305 -0.534868 0.572767 -4.20523 -3.36415 4.13627
139 2 O 3.45014 8.29215 20.7755 -0.0914598 0.58972 0.637004 -0.605636 -2.8811 2.20968
140 2 O 6.75334 8.27305 20.7631 -0.0106311 0.102651 0.450272 -3.77108 -0.458158 5.33746
142 2 O 10.9895 0.574383 20.9262 0.466505 -1.04595 -0.50541 1.45927 -2.28297 5.49018
144 2 O 8.17664 5.60789 20.804 -1.10766 0.934584 0.57992 -1.63396 1.2494 4.07109
146 2 O 5.2027 3.90824 23.0093 -1.26332 0.307751 -0.156614 -0.738517 0.0502195 -5.54596
148 2 O 2.19791 9.09093 23.0902 -1.17886 0.388476 0.218955 6.34577 1.81885 -3.40327
151 2 O 6.32526 1.24813 23.1704 0.783331 0.48053 -0.796977 -3.31694 -1.73897 5.37921
152 2 O 9.68663 1.23059 23.1363 -0.709326 0.141093 0.834934 4.24233 4.58886 -1.37717
154 2 O 7.99417 4.061 23.0902 0.412187 0.140526 -0.300742 -4.31457 -6.44038 4.98275
157 2 O 3.60869 6.45592 23.0635 -1.15089 -0.383623 -0.479783 4.51205 2.032 5.21307
158 2 O 6.84148 6.50105 23.1037 -1.01259 0.333213 0.355135 -2.63913 0.910033 -0.237911
160 2 O 5.04986 9.18077 23.0699 0.702387 -0.117846 0.087756 -2.66847 7.61811 2.78805
162 2 O 5.00208 2.14561 25.825 0.349318 -1.46869 0.286345 -2.85893 2.75928 -1.87637
165 2 O 3.48919 4.87134 25.8227 0.0524204 0.0821219 0.533768 0.268353 5.32849 -4.42805
166 2 O 6.62584 4.83673 25.9386 0.423452 -0.149819 -0.117166 -8.70687 0.0514345 3.57125
168 2 O 2.05073 7.27418 25.981 0.52318 0.91748 -1.10417 -7.81346 -3.4621 4.23689
171 2 O 0.355578 10.0728 25.8449 0.843025 -0.716917 -0.736623 -8.96248 -4.03669 8.2069
172 2 O 3.60142 9.98367 25.971 0.935862 0.716585 -0.192889 -3.98386 -2.26994 -3.49332
174 2 O 8.04031 2.21634 25.9202 -0.0369373 -0.115433 0.823696 -1.10737 -4.71967 12.8383
176 2 O 5.04627 7.27329 25.9055 0.573815 0.757173 0.212181 -3.5131 1.79034 3.94852
178 2 O 11.0331 0.415483 27.8832 0.534024 0.511936 1.14375 -1.03347 -0.438312 4.34399
180 2 O 8.07532 5.57467 27.8431 0.158846 1.19715 0.989014 -3.57428 -9.69046 -8.99079
182 2 O 8.04641 0.548836 28.1133 -0.318778 -0.362791 -0.599794 -5.90762 5.50421 -1.86653
185 2 O 6.66743 2.97691 28.084 0.272951 -0.0306064 -0.747103 -1.16424 0.207868 -5.05611
186 2 O 9.41566 3.03088 28.2099 -0.615284 -0.270586 -0.551107 2.33067 0.0756567 -8.92468
188 2 O 5.17008 5.87196 27.991 -0.424195 -0.778779 0.675913 7.78286 4.3232 -0.196058
191 2 O 3.74168 8.17242 28.105 -0.544473 -0.0602117 -0.228233 -2.15946 -0.179919 -0.856706
192 2 O 6.47972 8.0552 28.0807 0.817414 1.22559 -0.652357 2.68486 5.16108 -0.971767
194 1 Cr 8.09887 0.503557 2.43513 0 0 0 0 0 0
197 1 Cr 6.60369 3.09328 2.43513 0 0 0 0 0 0
198 1 Cr 9.59404 3.09328 2.43513 0 0 0 0 0 0
200 1 Cr 5.10851 5.683 2.43513 0 0 0 0 0 0
203 1 Cr 3.61334 8.27271 2.43513 0 0 0 0 0 0
204 1 Cr 6.60369 8.27271 2.43513 0 0 0 0 0 0
206 1 Cr 5.10851 2.23004 7.3054 0 0 0 0 0 0
209 1 Cr 3.61334 4.81976 7.3054 0 0 0 0 0 0
210 1 Cr 6.60369 4.81976 7.3054 0 0 0 0 0 0
212 1 Cr 2.11816 7.40947 7.3054 0 0 0 0 0 0
215 1 Cr 0.622989 9.99919 7.3054 0 0 0 0 0 0
216 1 Cr 3.61334 9.99919 7.3054 0 0 0 0 0 0
219 1 Cr 6.57048 1.52225 12.1121 1.16244 -1.26105 0.380645 -0.131317 0.111678 -0.961301
220 1 Cr 9.65531 1.41414 12.1235 -0.842825 0.497814 -0.602038 1.54832 -0.793685 5.49888
222 1 Cr 8.06276 3.97573 12.0804 2.47757 1.27721 0.501002 -0.575213 3.4316 -0.869847
225 1 Cr 3.70045 6.64748 12.2071 -0.0371683 1.24658 -0.606683 0.406018 5.85103 3.55994
226 1 Cr 6.67129 6.57502 12.1922 0.279722 1.75537 -0.453628 -1.32948 -0.362635 -1.99559
228 1 Cr 5.18318 9.31638 12.0546 0.119804 -3.14101 -0.23349 1.59066 0.467455 0.533515
230 1 Cr 8.03539 0.535342 17.0149 1.20115 -0.639682 -0.022764 -2.20441 -0.019323 1.61035
233 1 Cr 6.56552 3.08125 17.0243 0.134447 0.0219442 0.639958 -0.740576 1.39387 1.78554
234 1 Cr 9.63119 2.93674 17.0419 -0.714623 1.78858 -0.277004 1.98221 1.29763 -2.19622
236 1 Cr 5.1642 5.61997 16.8607 -0.319093 0.84866 2.18784 -1.16181 -2.55318 2.7464
239 1 Cr 3.66375 8.29878 16.9813 -1.07662 -0.786486 0.631434 1.951 -0.246511 0.494316
240 1 Cr 6.55095 8.27868 17.0251 1.61561 -0.733274 -0.125052 2.08863 -0.55074 -0.969865
242 1 Cr 5.03382 2.19434 21.8776 0.951414 0.3088 0.0836197 0.518705 -0.23324 3.47522
245 1 Cr 3.64531 4.8076 21.852 -0.305158 1.16771 0.485791 1.20233 -4.15738 -1.19432
246 1 Cr 6.53732 4.94192 21.9996 0.861936 -1.65445 -1.3828 -0.723984 0.158497 6.44278
248 1 Cr 2.04829 7.45055 22.0144 2.09435 -0.671032 -1.29291 2.55693 0.716982 2.0014
251 1 Cr 0.529331 9.96888 21.9846 0.581438 1.38205 0.574205 1.70213 -4.20892 -0.386727
252 1 Cr 3.61085 9.9418 22.0065 -0.265567 0.41215 -0.624912 0.645775 2.86275 3.41951
255 1 Cr 6.50737 1.27253 27.0147 1.31832 1.33947 -0.147391 2.79203 0.300751 0.00360705
256 1 Cr 9.54652 1.33205 27.1978 -1.22208 -0.0382339 -0.586967 -1.53715 1.74527 6.54988
258 1 Cr 8.10276 3.91527 27.1055 -1.05078 -2.1325 -0.498428 -1.12161 0.399665 1.76803
261 1 Cr 3.62501 6.5484 27.1219 -0.290024 0.284383 -1.27886 2.76572 -0.473584 2.19073
262 1 Cr 6.64555 6.53924 27.0555 -0.968115 -0.0955434 -1.26453 -6.51572 -0.188431 6.12514
264 1 Cr 5.09363 9.08968 27.0325 -0.323578 -0.606023 -0.455138 -2.34801 -8.28216 2.58627
266 3 Zn 8.09887 2.23004 0 0 0 0 0 0 0
268 3 Zn 5.10851 7.40947 0 0 0 0 0 0 0
270 3 Zn 11.0892 0.503557 0.642729 0 0 0 0 0 0
272 3 Zn 8.09887 5.683 0.642729 0 0 0 0 0 0
274 3 Zn 11.0892 0.503557 4.22754 0 0 0 0 0 0
276 3 Zn 8.09887 5.683 4.22754 0 0 0 0 0 0
278 3 Zn 5.10851 3.95652 4.87027 0 0 0 0 0 0
280 3 Zn 2.11816 9.13595 4.87027 0 0 0 0 0 0
282 3 Zn 8.09887 2.23004 5.51299 0 0 0 0 0 0
284 3 Zn 5.10851 7.40947 5.51299 0 0 0 0 0 0
286 3 Zn 8.14817 2.20115 8.97153 -0.397038 0.495147 0.3501 2.51242 1.10114 1.40324
288 3 Zn 5.19842 7.38442 9.04701 -0.334625 0.437519 0.219289 -4.46335 -1.8987 -1.43581
290 3 Zn 11.2519 0.536605 9.74054 -0.91309 0.359091 -0.299142 -2.99902 3.40234 0.767186
292 3 Zn 8.26586 5.66237 9.73222 -0.432214 0.512273 0.0693474 1.04188 0.808412 0.566887
294 3 Zn 5.23206 4.01239 10.3962 -0.603255 0.520706 -0.444271 -0.028472 1.10174 2.55387
296 3 Zn 2.0033 9.25144 10.3693 0.849846 -0.143096 -0.0213284 -2.19677 -1.50209 0.890755
298 3 Zn 5.17638 4.09358 13.946 -0.383017 -0.344042 0.0161241 -2.98347 0.412326 -3.15332
300 3 Zn 2.18773 9.24543 13.9724 0.67328 0.423139 -0.137821 -0.18555 -2.99715 0.82883
302 3 Zn 8.05671 2.24796 14.6108 0.336936 0.450329 -1.21778 4.18306 -2.98393 0.901379
304 3 Zn 5.00879 7.54331 14.5597 1.05012 -0.0230717 0.263003 -1.68792 -0.0709743 2.33773
306 3 Zn 11.067 0.580821 15.1428 0.320138 -0.261122 0.320587 -0.962294 -1.40394 0.899813
308 3 Zn 8.11097 5.61436 15.3214 0.146898 0.26649 -0.607074 3.45099 -1.75407 -3.63721
310 3 Zn 11.1498 0.390735 18.9007 -0.540136 0.457245 0.0667417 -1.75185 -1.08806 2.82849
312 3 Zn 8.05622 5.60873 18.8499 0.00384815 -0.203021 -0.296135 5.42261 3.2411 0.905732
314 3 Zn 4.97615 3.9648 19.5192 0.619613 0.49939 -0.952353 -0.126473 -0.39502 -0.768122
316 3 Zn 2.10216 9.11697 19.4807 0.248768 0.320873 -0.0899265 0.847027 -0.71088 -1.59762
318 3 Zn 8.00197 2.26645 20.2042 0.196658 -0.34324 -0.229393 -2.52882 1.06154 -3.23102
320 3 Zn 5.10217 7.49609 20.0766 -0.269204 -0.343103 -0.109301 -1.26785 -2.92784 0.211497
322 3 Zn 7.92916 2.25116 23.9325 0.234506 -0.287498 -0.408884 -1.05739 -2.4706 0.626117
324 3 Zn 5.13935 7.2691 23.8534 0.259447 0.699968 0.165908 -0.369363 3.00337 0.812868
326 3 Zn 11.013 0.4746 24.5658 -0.136083 -0.305076 -0.0966399 0.537986 -0.262238 7.00249
328 3 Zn 8.05453 5.5531 24.5097 0.0873404 -0.286274 -0.595199 0.190293 1.18381 2.10172
330 3 Zn 5.11361 3.84851 25.0412 -0.211591 1.13468 -0.748694 -1.5499 4.63735 -2.45358
332 3 Zn 2.10015 9.1785 25.0678 -0.518692 -0.334309 0.0733831 -3.34169 -2.2264 -2.27187
334 3 Zn 5.07719 3.98717 27.8242 0.525562 -0.17308 0.361089 -2.90418 -2.80837 -9.02141
336 3 Zn 1.97318 8.93886 28.0849 1.31398 1.12767 0.184104 3.75744 1.17651 -8.61896
ITEM: TIMESTEP
10
ITEM: NUMBER OF ATOMS
336
ITEM: BOX BOUNDS xy xz yz pp pp pp
-5.9807006299141401e+00 1.1961401259828300e+01 -5.9807006299141401e+00
0.0000000000000000e+00 1.0358877355870501e+01 0.0000000000000000e+00
0.0000000000000000e+00 4.8578864614561297e+01 0.0000000000000000e+00
ITEM: ATOMS id type element x y z fx fy fz vx vy vz
1 2 O 0.730642 1.42895 1.34122 0 0 0 0 0 0
2 2 O 3.50569 1.42895 1.34122 0 0 0 0 0 0
5 2 O 2.11816 3.83221 1.34122 0 0 0 0 0 0
7 2 O -2.25971 6.60839 1.34122 0 0 0 0 0 0
8 2 O 0.515337 6.60839 1.34122 0 0 0 0 0 0
11 2 O -0.872186 9.01165 1.34122 0 0 0 0 0 0
13 2 O -0.872186 3.95652 1.36109 0 0 0 0 0 0
15 2 O -3.86254 9.13595 1.36109 0 0 0 0 0 0
17 2 O 2.11816 2.23004 3.50917 0 0 0 0 0 0
19 2 O -0.872186 7.40947 3.50917 0 0 0 0 0 0
21 2 O -0.872186 2.35434 3.52904 0 0 0 0 0 0
23 2 O -2.25971 4.7576 3.52904 0 0 0 0 0 0
24 2 O 0.515337 4.7576 3.52904 0 0 0 0 0 0
27 2 O -3.86254 7.53378 3.52904 0 0 0 0 0 0
29 2 O -5.25006 9.93704 3.52904 0 0 0 0 0 0
30 2 O -2.47501 9.93704 3.52904 0 0 0 0 0 0
33 2 O 2.11816 0.37925 6.21149 0 0 0 0 0 0
35 2 O 0.515337 3.15543 6.21149 0 0 0 0 0 0
36 2 O 3.72099 3.15543 6.21149 0 0 0 0 0 0
39 2 O -0.872186 5.55869 6.21149 0 0 0 0 0 0
41 2 O -2.47501 8.33487 6.21149 0 0 0 0 0 0
42 2 O 0.730642 8.33487 6.21149 0 0 0 0 0 0
45 2 O 5.10851 0.503557 6.23136 0 0 0 0 0 0
47 2 O 2.11816 5.683 6.23136 0 0 0 0 0 0
49 2 O -0.930112 3.93665 8.36266 0.610479 0.212137 -0.105241 9.00785 1.56566 -3.01422
51 2 O -3.77443 9.12638 8.43405 -0.565755 0.0899018 -0.725793 -6.22589 8.26272 -0.430675
53 2 O 0.554588 1.31617 8.31591 0.208207 0.268431 0.368122 6.74256 0.47624 0.836457
54 2 O 3.75034 1.37155 8.35753 -0.459795 -0.514191 0.557028 -2.8319 -3.63707 2.61917
57 2 O 2.16728 4.05859 8.39346 -0.297573 0.413653 -0.104539 10.8661 -0.774071 6.42111
59 2 O -2.31277 6.51087 8.35612 -1.3292 -0.218116 -0.0853426 -3.62356 7.43064 0.0656875
60 2 O 0.743855 6.47281 8.50759 0.238359 0.121652 -0.549482 -4.03949 -3.03903 1.77681
63 2 O -0.77993 9.40254 8.44867 -0.756048 -1.46052 0.0885926 -2.05954 -3.28474 4.69572
65 2 O -0.792495 2.15918 10.9062 0.0439901 0.298316 1.52177 -2.80896 -5.74773 -1.75388
67 2 O -2.38202 5.04859 11.0928 0.297608 -0.751702 -0.156982 2.7849 -4.08016 -0.693454
68 2 O 0.850031 4.87137 11.096 -0.465623 0.846707 -0.0583839 -8.66685 2.10923 0.259109
71 2 O -3.67672 7.3826 11.2532 -0.871886 -0.382272 -0.725815 0.490464 5.82839 -0.220493
73 2 O -5.37525 10.1989 11.0456 0.522161 -0.617334 -0.0650607 -1.96817 -4.30805 2.59371
74 2 O -2.16084 10.0747 11.1446 -0.438024 0.263815 -0.0225847 -2.60473 -2.21794 3.99179
77 2 O 2.24697 2.29978 11.1253 0.173056 0.395774 0.140017 -1.26572 -4.79477 4.8442
79 2 O -0.773057 7.4836 11.1535 -0.315038 0.26508 0.0889834 10.1087 -2.84153 -7.61087
81 2 O 5.17507 0.552187 13.2838 -0.117427 0.500922 0.330228 -2.32563 -7.29664 -4.26672
83 2 O 2.20251 5.74072 13.3113 -0.0756874 0.761187 -0.977272 1.07646 -4.80974 1.68814
85 2 O 2.17483 0.751791 13.3026 0.111274 -0.818795 0.15343 9.54519 -0.753937 0.338729
87 2 O 0.762021 3.15363 13.1419 -0.186046 0.511408 0.84953 -1.23263 1.31474 4.71561
88 2 O 3.4581 3.27832 13.3672 -0.39328 -1.22162 -0.805419 -2.75577 -0.630358 -0.13017
91 2 O -0.845889 5.9286 13.3369 0.174467 -1.44196 -0.903506 3.38939 3.50834 4.67672
93 2 O -2.08794 8.23007 13.2743 -1.29701 0.625749 0.79986 1.73657 -1.78179 0.0982
94 2 O 0.584106 8.33799 13.2939 0.250546 -0.523386 -0.061747 -6.57706 -8.19536 -0.449757
97 2 O 0.789523 1.36236 15.8434 -0.1566 0.407727 0.766261 -4.93766 6.14551 2.59038
98 2 O 3.54569 1.39766 16.0818 -0.0201988 -0.428286 -0.316227 -4.90004 -6.2955 1.40795
101 2 O 2.23688 3.8482 16.0517 -1.11863 -0.936159 -0.199104 0.464087 1.66386 -0.570588
103 2 O -2.1964 6.51355 16.0072 -0.90268 0.165452 -0.531661 -0.959988 -0.73954 2.07232
104 2 O 0.458159 6.52918 15.7862 1.29192 -0.606734 2.07335 -1.03031 2.33785 -5.06215
107 2 O -0.834537 8.88396 15.926 -0.368987 -0.238278 0.576237 -0.950282 -5.75348 -3.11965
109 2 O -0.942217 3.93278 16.0224 1.17207 -0.0660061 -0.962805 -5.16502 -2.05497 6.78525
111 2 O -3.85262 9.06101 16.0331 0.570264 0.211423 -1.05662 -2.90083 4.16821 5.21374
113 2 O 2.01216 2.1596 18.1963 1.02449 0.0671884 -0.690912 -3.42763 3.77294 -1.7721
115 2 O -0.820558 7.38097 18.1702 -0.152603 -0.579503 -0.616649 -1.91139 7.88416 0.894218
117 2 O -0.869751 2.26932 18.1464 0.105433 -0.0832265 0.067174 -1.77973 -2.29526 4.8492
119 2 O -2.22405 4.68709 18.1854 -0.652338 -0.0887691 -0.162292 3.00379 -0.129235 -0.63969